# vtk DataFile Version 5.1
vtk output
ASCII
DATASET UNSTRUCTURED_GRID
POINTS 74 double
-0.7 -0.2 -0 0.3 -0.2 -0 0.3 0.3 -0 
-0.7 0.3 -0 -0.68881433965 -0.2 0 -0.67335410366 -0.2 0 
-0.65198577358 -0.2 0 -0.62245158186 -0.2 0 -0.5816309697 -0.2 0 
-0.52521084973 -0.2 0 -0.4472299058 -0.2 0 -0.33944871665 -0.2 0 
-0.19047920428 -0.2 0 0.015418710773 -0.2 0 0.3 0.18145481149 0 
-0.22666137696 0.3 0 -0.58932853675 0.3 0 -0.7 0.20982092685 0 
-0.7 0.13427991002 0 -0.7 0.071000893629 0 -0.7 0.017993483646 0 
-0.7 -0.026409643558 0 -0.7 -0.06360514816 0 -0.7 -0.094762991407 0 
-0.7 -0.1208632181 0 -0.7 -0.14272679496 0 -0.7 -0.16104142776 0 
-0.7 -0.17638318452 0 -0.7 -0.18923462988 0 -0.66466675597 -0.0042080799562 0 
-0.67758772737 -0.10923082381 0 -0.63442121047 0.096176940717 0 -0.49311582707 -0.1324215779 0 
-0.68542635582 -0.15188411136 0 -0.60362243756 -0.17024039048 0 -0.66310628377 -0.18336492437 0 
-0.68972710224 -0.1827156455 0 -0.25790280297 -0.073864503178 0 -0.40799495685 0.13668285492 0 
-0.63719938341 -0.17798844165 0 -0.62686476294 -0.14526377153 0 -0.59074468644 -0.13299535987 0 
-0.62315514496 -0.11017434857 0 -0.58764866097 -0.078485150589 0 -0.65398702479 -0.15690745471 0 
-0.39114804046 -0.11216042781 0 -0.46563706977 -0.02858473899 0 0.12429724914 -0.00915363632 0 
-0.078034843449 -0.035339334201 0 0.052916294179 0.16401781004 0 -0.67040213216 -0.045007395859 0 
-0.6247304824 -0.031567541973 0 -0.61716700907 0.025685018798 0 -0.5611073568 -0.019971374703 0 
-0.54225633647 0.062805540284 0 -0.65469411464 -0.12807835053 0 -0.68789560628 -0.16874314208 0 
-0.68374565941 -0.13303386769 0 -0.67322898762 -0.079883137386 0 -0.56254790493 -0.16514552131 0 
-0.2114612217 0.078631626118 0 -0.63829815111 -0.073836572078 0 -0.56303019397 0.15354315087 0 
-0.63735598824 0.17876418569 0 -0.68052692316 -0.18919880608 0 -0.67934922257 -0.17737367304 0 
-0.66882033444 -0.14531877674 0 -0.65339282514 -0.10024064647 0 -0.6632509951 0.041329651367 0 
-0.5505310435 -0.11585381474 0 -0.67309747128 -0.16393201372 0 -0.34682881835 0.00014096221217 0 
-0.53160799162 -0.075063331385 0 -0.69142972742 -0.19152363037 0 
CELLS 151 413
OFFSETS vtktypeint64
0 1 2 3 4 6 8 10 12 
14 16 18 20 22 24 26 28 30 
32 34 36 38 40 42 44 46 48 
50 52 54 56 58 60 62 65 68 
71 74 77 80 83 86 89 92 95 
98 101 104 107 110 113 116 119 122 
125 128 131 134 137 140 143 146 149 
152 155 158 161 164 167 170 173 176 
179 182 185 188 191 194 197 200 203 
206 209 212 215 218 221 224 227 230 
233 236 239 242 245 248 251 254 257 
260 263 266 269 272 275 278 281 284 
287 290 293 296 299 302 305 308 311 
314 317 320 323 326 329 332 335 338 
341 344 347 350 353 356 359 362 365 
368 371 374 377 380 383 386 389 392 
395 398 401 404 407 410 413 
CONNECTIVITY vtktypeint64
0 1 2 3 0 4 4 5 5 
6 6 7 7 8 8 9 9 10 
10 11 11 12 12 13 13 1 1 
14 14 2 2 15 15 16 16 3 
3 17 17 18 18 19 19 20 20 
21 21 22 22 23 23 24 24 25 
25 26 26 27 27 28 28 0 51 
61 43 12 48 37 13 48 12 43 
61 42 46 54 53 1 47 13 38 
54 46 35 70 65 32 59 9 47 
48 13 16 3 17 49 60 48 14 
49 47 32 69 59 43 53 51 17 
63 16 31 68 52 6 35 5 8 
34 7 35 64 5 7 39 6 44 
70 35 10 32 9 34 39 7 53 
72 46 30 57 55 6 39 35 42 
55 40 9 59 8 48 60 37 40 
44 39 34 40 39 2 49 14 39 
44 35 46 71 38 11 45 10 55 
66 44 28 36 27 15 60 49 5 
64 4 26 33 25 24 30 23 21 
29 20 52 54 31 22 50 21 40 
55 44 12 37 11 0 73 28 4 
73 0 27 56 26 25 57 24 10 
45 32 23 58 22 26 56 33 24 
57 30 22 58 50 35 65 64 47 
49 48 38 62 54 57 66 55 20 
68 19 42 67 55 41 42 40 21 
50 29 37 45 11 55 67 30 58 
61 50 45 46 32 19 31 18 18 
63 17 54 62 31 32 72 69 36 
56 27 33 57 25 50 51 29 46 
72 32 29 68 20 30 58 23 38 
71 60 8 59 34 34 41 40 60 
71 37 43 72 53 41 43 42 30 
67 58 16 63 62 50 61 51 34 
59 41 28 73 36 58 67 61 64 
65 36 36 65 56 64 73 4 33 
66 57 33 70 66 56 70 33 19 
68 31 66 70 44 51 53 52 51 
52 29 38 60 15 62 63 31 59 
69 41 31 63 18 53 54 52 52 
68 29 61 67 42 65 70 56 41 
69 43 45 71 46 36 73 64 69 
72 43 37 71 45 14 47 1 15 
49 2 16 38 15 16 62 38 
CELL_TYPES 150
1
1
1
1
3
3
3
3
3
3
3
3
3
3
3
3
3
3
3
3
3
3
3
3
3
3
3
3
3
3
3
3
3
5
5
5
5
5
5
5
5
5
5
5
5
5
5
5
5
5
5
5
5
5
5
5
5
5
5
5
5
5
5
5
5
5
5
5
5
5
5
5
5
5
5
5
5
5
5
5
5
5
5
5
5
5
5
5
5
5
5
5
5
5
5
5
5
5
5
5
5
5
5
5
5
5
5
5
5
5
5
5
5
5
5
5
5
5
5
5
5
5
5
5
5
5
5
5
5
5
5
5
5
5
5
5
5
5
5
5
5
5
5
5
5
5
5
5
5
5

POINT_DATA 74
FIELD FieldData 1
v_center_dist 1 74 double
0.0025638044952 0.0025638044952 0.0025638044952 0.0025638044952 0.0032781593595 0.00456238473 0.0070797935047 0.062839844042 0.13031993778 
0.31615004815 0.8525272464 2.152432017 3.3092319714 1.1823492427 0.0070032407714 3.2639374547 0.11421863144 0.0058285309218 
0.0087805095089 0.010181581381 0.010050439359 0.0090307751518 0.0077181777478 0.0064539031886 0.0053742568381 0.0045040070358 0.0038214773208 
0.0032920379622 0.0028821372092 0.10271507208 0.0095242092149 0.19136306091 0.94068424285 0.0057190613981 0.12117324179 0.0067516685315 
0.0038684087883 8.7773241277 4.3028079516 0.059899182476 0.099374705952 0.21236195645 0.14062939229 0.32673656581 0.052664000575 
3.2914152421 2.4164918266 1.1886022825 8.1271691664 2.4042739523 0.079638311938 0.20824696749 0.27449707463 0.65775323219 
0.98105922246 0.066439637255 0.0046311740058 0.0069673995979 0.063049708613 0.2561724042 13.019954607 0.13236719573 0.56028128823 
0.13113836078 0.0044071196573 0.0051087187224 0.0086183515415 0.08356767125 0.11270594967 0.47041155915 0.0066531440643 7.7935335045 
0.81579178342 0.0033970106324 
