# vtk DataFile Version 5.1
vtk output
ASCII
DATASET UNSTRUCTURED_GRID
POINTS 269 double
-0 0 0 1 -0 0 1 -0.5 0 
0 -0.5 0 0.05 0 0 0.1 0 0 
0.15 0 0 0.2 0 0 0.25 0 0 
0.3 0 0 0.35 0 0 0.4 0 0 
0.45 0 0 0.5 0 0 0.55 0 0 
0.6 0 0 0.65 0 0 0.7 0 0 
0.75 0 0 0.8 0 0 0.85 0 0 
0.9 0 0 0.95 0 0 0.05 -0.5 0 
0.1 -0.5 0 0.15 -0.5 0 0.2 -0.5 0 
0.25 -0.5 0 0.3 -0.5 0 0.35 -0.5 0 
0.4 -0.5 0 0.45 -0.5 0 0.5 -0.5 0 
0.55 -0.5 0 0.6 -0.5 0 0.65 -0.5 0 
0.7 -0.5 0 0.75 -0.5 0 0.8 -0.5 0 
0.85 -0.5 0 0.9 -0.5 0 0.95 -0.5 0 
0 -0.05 0 0 -0.1 0 0 -0.15 0 
0 -0.2 0 0 -0.25 0 0 -0.3 0 
0 -0.35 0 0 -0.4 0 0 -0.45 0 
1 -0.05 0 1 -0.1 0 1 -0.15 0 
1 -0.2 0 1 -0.25 0 1 -0.3 0 
1 -0.35 0 1 -0.4 0 1 -0.45 0 
0.32502545268 -0.45796290612 0 0.475 -0.043301270189 0 0.62515543024 -0.045512399424 0 
0.72360903473 -0.45750180399 0 0.26804485315 -0.047500044059 0 0.51949256317 -0.45167876371 0 
0.78030702866 -0.048324524907 0 0.043301270189 -0.275 0 0.9580898624 -0.27299782133 0 
0.17453990005 -0.45557284896 0 0.043301270189 -0.175 0 0.9580898624 -0.17700217866 0 
0.625 -0.45669872981 0 0.17436205476 -0.04428997567 0 0.42901871362 -0.45232354192 0 
0.375 -0.043301270189 0 0.82792377468 -0.46016984917 0 0.95246105957 -0.37432464239 0 
0.043065335493 -0.37459134912 0 0.87108901972 -0.045956649346 0 0.043301270189 -0.075 0 
0.95855036568 -0.071972135372 0 0.079591280953 -0.45471513763 0 0.92507790395 -0.45759409911 0 
0.04326194774 -0.32493189152 0 0.086595986637 -0.29998864859 0 0.086601448088 -0.2499981081 0 
0.12990253623 -0.27499779278 0 0.12990341613 -0.22499931681 0 0.17320480263 -0.24999951827 0 
0.17320508076 -0.3 0 0.21693103498 -0.27540437691 0 0.21657708526 -0.22506731586 0 
0.25989019086 -0.25007861546 0 0.25980762113 -0.3 0 0.30310889132 -0.275 0 
0.30312265294 -0.22501310258 0 0.34641245512 -0.25000218376 0 0.34642736345 -0.29997123143 0 
0.38971468096 -0.2749955692 0 0.38971167218 -0.22499990251 0 0.43301328351 -0.24999924528 0 
0.43301334037 -0.29999913575 0 0.47631417543 -0.27499973017 0 0.47631410291 -0.22499982924 0 
0.51961529797 -0.24999992657 0 0.51825668346 -0.20235310603 0 0.56269009527 -0.2253921721 0 
0.56287878554 -0.27506534978 0 0.60617375863 -0.25007625365 0 0.60620415749 -0.30002360057 0 
0.64950944464 -0.27501664237 0 0.64951011414 -0.22501548267 0 0.69282032303 -0.25 0 
0.69281883324 -0.20000258044 0 0.73612134492 -0.22500043007 0 0.73612155183 -0.27500007168 0 
0.77942281512 -0.25000008362 0 0.77942281398 -0.20000008562 0 0.77942284846 -0.30000002588 0 
0.64951518061 -0.32500670716 0 0.82272413359 -0.225 0 0.55697204331 -0.17116908246 0 
0.82248895115 -0.17500001427 0 0.47631411239 -0.32499981099 0 0.47450998217 -0.17812461367 0 
0.60664592435 -0.34925843705 0 0.78063497931 -0.15072005219 0 0.43301283169 -0.34999982445 0 
0.64951731476 -0.17500301052 0 0.73612158383 -0.32500001626 0 0.77942285935 -0.35000000702 0 
0.82272413043 -0.32500000548 0 0.69240407233 -0.15072096737 0 0.82455398978 -0.12512001108 0 
0.8678904312 -0.14785551622 0 0.47473380507 -0.37499993924 0 0.64951905284 -0.375 0 
0.51820275038 -0.34925334414 0 0.64871085113 -0.12639984643 0 0.69428444916 -0.097917250303 0 
0.82186055147 -0.37350423605 0 0.8656462987 -0.34975070692 0 0.86756146754 -0.30212294007 0 
0.73689371899 -0.37540168778 0 0.8613748307 -0.39401042955 0 0.91069294912 -0.33045792665 0 
0.60309540532 -0.40589237843 0 0.867014145 -0.099531166619 0 0.90932667397 -0.125 0 
0.8262315417 -0.075383369289 0 0.43301270189 -0.4 0 0.3900447502 -0.37527367899 0 
0.47356529231 -0.42427623356 0 0.086555571897 -0.3499186482 0 0.085150911915 -0.40029553828 0 
0.13002418649 -0.37503569775 0 0.12848577447 -0.42525304447 0 0.17395335281 -0.40156260929 0 
0.22121281952 -0.42665166036 0 0.21868507453 -0.37665917039 0 0.26277785945 -0.40190917168 0 
0.26154213757 -0.352144911 0 0.30401544733 -0.37720987743 0 0.17450577121 -0.35067669293 0 
0.08660229259 -0.19999957082 0 0.12944526723 -0.17426541556 0 0.57489535473 -0.45615533438 0 
0.55462403067 -0.41684935822 0 0.525 -0.043301270189 0 0.5 -0.086164549684 0 
0.45 -0.082482467458 0 0.55001069235 -0.087177811669 0 0.52706744913 -0.12705363313 0 
0.95669872981 -0.225 0 0.91308355738 -0.20762086317 0 0.92256394363 -0.2487211225 0 
0.67476817245 -0.45787849526 0 0.69686372555 -0.40930446498 0 0.82274495895 -0.27535384251 0 
0.43271219573 -0.20052059845 0 0.38966138742 -0.17508675016 0 0.43109916617 -0.15331437258 0 
0.38974860865 -0.12776821084 0 0.34640801696 -0.15047582683 0 0.34846650242 -0.093029253896 0 
0.30310889132 -0.125 0 0.30310959693 -0.17502969688 0 0.25980773874 -0.15000494948 0 
0.25980762113 -0.1 0 0.21650637055 -0.12500082491 0 0.21863585984 -0.075072038707 0 
0.17326820661 -0.099359510464 0 0.12814791085 -0.07203048213 0 0.12811775467 -0.12147739861 0 
0.043301046843 -0.22499961315 0 0.086602540378 -0.15 0 0.87638092264 -0.46125769647 0 
0.77716464703 -0.45027328023 0 0.21651816287 -0.17501218171 0 0.725 -0.043301270189 0 
0.74609198025 -0.084581191348 0 0.67325461846 -0.044901003438 0 0.38977052136 -0.32503990664 0 
0.34700622373 -0.35187111416 0 0.25982901409 -0.20002450738 0 0.34640429692 -0.20010124379 0 
0.325 -0.043301270189 0 0.26916697825 -0.4535540177 0 0.37464141462 -0.45693246913 0 
0.34781290372 -0.40830621006 0 0.425 -0.042709119327 0 0.12990381057 -0.325 0 
0.043555963064 -0.12374283205 0 0.17314230248 -0.1998906247 0 0.69281806783 -0.30000390624 0 
0.60594768741 -0.19985492162 0 0.17283301073 -0.14916765933 0 0.60621778265 -0.15 0 
0.60273440628 -0.0944974338 0 0.51937360569 -0.29988636027 0 0.77908977221 -0.39723675326 0 
0.69362188827 -0.35161946374 0 0.73583822678 -0.1759607215 0 0.56313468058 -0.3240012344 0 
0.57534530106 -0.044572852802 0 0.30337069544 -0.32526531081 0 0.21846850395 -0.32683907874 0 
0.86740584553 -0.19612969829 0 0.95619112831 -0.12455810856 0 0.87663101666 -0.24899077065 0 
0.95726673109 -0.32092468076 0 0.89909179907 -0.37334594089 0 0.08511645874 -0.097799749936 0 
0.08097331329 -0.044547786829 0 0.91034563179 -0.078884073401 0 0.47478209601 -0.12780413806 0 
0.041063768759 -0.42346606095 0 0.95790466558 -0.42494721306 0 0.7380219447 -0.12741293983 0 
0.56550286003 -0.3705203146 0 0.40157322751 -0.083036308105 0 0.3 -0.080384757729 0 
0.64989233659 -0.42058857497 0 0.56895825623 -0.12641560818 0 0.92544616211 -0.038086649336 0 
0.30015271607 -0.4209825175 0 0.90421273339 -0.41744068264 0 0.39409112258 -0.41808174032 0 
0.6469960557 -0.082251879267 0 0.51013397009 -0.4 0 0.22427336358 -0.033699258419 0 
0.74165420836 -0.41821590467 0 0.12652339109 -0.46710820621 0 0.825 -0.033367863785 0 
0.47484780139 -0.46639499182 0 0.78695246391 -0.10070105009 0 0.81754264805 -0.41602540378 0 
0.22298393956 -0.4671557054 0 0.125 -0.03093502181 0 0.036602540378 -0.036602540378 0 
0.96339745962 -0.46339745962 0 0.036602540378 -0.46339745962 0 0.96376274452 -0.036237255482 0 
0.91816346468 -0.16227719514 0 0.91546766174 -0.28736921033 0 0.425 -0.11387840678 0 
0.51146370289 -0.16411888036 0 0.85 -0.43159623159 0 
CELLS 542 1554
OFFSETS vtktypeint64
0 1 2 3 4 6 8 10 12 
14 16 18 20 22 24 26 28 30 
32 34 36 38 40 42 44 46 48 
50 52 54 56 58 60 62 64 66 
68 70 72 74 76 78 80 82 84 
86 88 90 92 94 96 98 100 102 
104 106 108 110 112 114 116 118 120 
122 124 126 129 132 135 138 141 144 
147 150 153 156 159 162 165 168 171 
174 177 180 183 186 189 192 195 198 
201 204 207 210 213 216 219 222 225 
228 231 234 237 240 243 246 249 252 
255 258 261 264 267 270 273 276 279 
282 285 288 291 294 297 300 303 306 
309 312 315 318 321 324 327 330 333 
336 339 342 345 348 351 354 357 360 
363 366 369 372 375 378 381 384 387 
390 393 396 399 402 405 408 411 414 
417 420 423 426 429 432 435 438 441 
444 447 450 453 456 459 462 465 468 
471 474 477 480 483 486 489 492 495 
498 501 504 507 510 513 516 519 522 
525 528 531 534 537 540 543 546 549 
552 555 558 561 564 567 570 573 576 
579 582 585 588 591 594 597 600 603 
606 609 612 615 618 621 624 627 630 
633 636 639 642 645 648 651 654 657 
660 663 666 669 672 675 678 681 684 
687 690 693 696 699 702 705 708 711 
714 717 720 723 726 729 732 735 738 
741 744 747 750 753 756 759 762 765 
768 771 774 777 780 783 786 789 792 
795 798 801 804 807 810 813 816 819 
822 825 828 831 834 837 840 843 846 
849 852 855 858 861 864 867 870 873 
876 879 882 885 888 891 894 897 900 
903 906 909 912 915 918 921 924 927 
930 933 936 939 942 945 948 951 954 
957 960 963 966 969 972 975 978 981 
984 987 990 993 996 999 1002 1005 1008 
1011 1014 1017 1020 1023 1026 1029 1032 1035 
1038 1041 1044 1047 1050 1053 1056 1059 1062 
1065 1068 1071 1074 1077 1080 1083 1086 1089 
1092 1095 1098 1101 1104 1107 1110 1113 1116 
1119 1122 1125 1128 1131 1134 1137 1140 1143 
1146 1149 1152 1155 1158 1161 1164 1167 1170 
1173 1176 1179 1182 1185 1188 1191 1194 1197 
1200 1203 1206 1209 1212 1215 1218 1221 1224 
1227 1230 1233 1236 1239 1242 1245 1248 1251 
1254 1257 1260 1263 1266 1269 1272 1275 1278 
1281 1284 1287 1290 1293 1296 1299 1302 1305 
1308 1311 1314 1317 1320 1323 1326 1329 1332 
1335 1338 1341 1344 1347 1350 1353 1356 1359 
1362 1365 1368 1371 1374 1377 1380 1383 1386 
1389 1392 1395 1398 1401 1404 1407 1410 1413 
1416 1419 1422 1425 1428 1431 1434 1437 1440 
1443 1446 1449 1452 1455 1458 1461 1464 1467 
1470 1473 1476 1479 1482 1485 1488 1491 1494 
1497 1500 1503 1506 1509 1512 1515 1518 1521 
1524 1527 1530 1533 1536 1539 1542 1545 1548 
1551 1554 
CONNECTIVITY vtktypeint64
0 1 2 3 0 4 4 5 5 
6 6 7 7 8 8 9 9 10 
10 11 11 12 12 13 13 14 14 
15 15 16 16 17 17 18 18 19 
19 20 20 21 21 22 22 1 2 
2 3 23 23 24 24 25 25 26 
26 27 27 28 28 29 29 30 30 
31 31 32 32 33 33 34 34 35 
35 36 36 37 37 38 38 39 39 
40 40 41 41 2 0 42 42 43 
43 44 44 45 45 46 46 47 47 
48 48 49 49 50 50 3 1 51 
51 52 52 53 53 54 54 55 55 
56 56 57 57 58 58 59 59 2 
175 176 230 228 175 230 178 137 222 
77 146 231 146 77 232 64 189 191 
81 229 235 229 149 235 143 230 265 
228 135 264 230 176 265 175 228 264 
147 72 167 62 219 225 140 200 201 
75 185 207 77 238 247 147 167 168 
219 172 225 232 77 247 159 161 208 
163 204 210 82 155 157 64 191 251 
200 140 202 204 152 210 144 178 222 
79 148 150 185 75 241 74 151 153 
159 208 258 127 239 256 138 240 250 
16 17 202 137 178 243 82 157 253 
239 201 256 196 213 233 240 168 250 
65 153 250 69 157 158 66 150 256 
198 221 257 69 158 159 73 192 193 
207 185 242 79 150 254 17 200 202 
62 16 202 73 191 192 166 194 217 
74 153 255 140 201 239 155 82 237 
72 147 243 194 196 233 122 173 244 
147 168 240 90 91 227 148 79 235 
194 192 217 76 198 257 219 62 249 
168 65 250 173 122 267 163 210 246 
194 166 196 201 66 256 153 65 255 
213 80 233 183 185 241 193 233 234 
189 64 242 164 156 212 150 66 254 
151 74 248 4 5 234 204 163 226 
221 198 252 164 90 227 163 162 226 
159 158 160 193 192 194 172 219 244 
162 94 226 90 164 212 158 156 164 
91 94 227 159 160 161 94 162 227 
160 158 164 157 69 253 161 160 162 
161 162 163 84 67 85 84 85 154 
47 67 84 70 165 195 47 46 67 
55 56 68 156 154 212 45 70 195 
154 85 212 165 70 196 67 46 195 
167 65 168 55 68 174 78 48 84 
196 70 213 33 32 65 85 67 86 
172 169 225 78 84 154 46 45 195 
54 55 174 48 47 84 33 65 167 
98 203 204 155 154 156 86 67 195 
182 181 183 71 54 174 174 68 176 
180 181 182 165 86 195 72 34 167 
169 14 225 155 156 157 99 102 203 
157 156 158 63 177 178 117 121 179 
85 87 212 34 33 167 87 90 212 
180 100 181 119 117 179 100 97 206 
98 99 203 187 96 205 49 48 78 
125 104 180 78 154 155 96 93 205 
101 100 180 104 101 180 35 34 72 
200 66 201 143 132 179 183 181 184 
135 148 149 128 151 152 20 21 79 
63 36 177 125 180 182 142 132 143 
96 187 206 18 66 200 132 119 179 
181 100 206 35 72 177 85 86 87 
102 128 203 93 92 205 13 14 169 
106 104 125 183 184 185 203 152 204 
97 96 206 83 40 197 142 143 146 
39 38 76 18 19 66 92 199 205 
37 63 198 123 134 135 128 136 151 
39 76 197 199 214 217 17 18 200 
76 38 198 185 184 186 117 118 121 
128 152 203 113 114 115 184 181 206 
116 115 117 102 124 128 187 184 206 
110 109 111 87 86 88 186 188 189 
57 58 77 131 119 132 71 174 175 
113 115 116 189 188 190 186 187 188 
199 92 214 43 42 80 12 13 61 
36 35 177 189 190 191 214 166 217 
40 39 197 186 184 187 191 190 192 
38 37 198 87 88 89 11 12 211 
88 86 165 190 188 199 41 40 83 
12 61 211 88 165 166 87 89 90 
75 11 211 111 112 113 8 9 64 
37 36 63 29 28 60 166 165 196 
15 16 62 6 7 73 111 113 215 
43 80 213 26 25 69 117 115 118 
64 9 207 9 10 207 45 44 70 
188 187 205 10 11 75 28 27 208 
60 28 208 10 75 207 199 188 205 
91 93 94 151 136 153 92 89 214 
108 109 110 121 118 123 44 43 213 
89 88 214 88 166 214 61 170 171 
91 89 92 135 134 148 113 116 215 
95 93 96 111 109 112 128 124 136 
70 44 213 108 107 109 90 89 91 
116 117 119 61 171 211 91 92 93 
131 132 141 94 93 95 109 107 216 
190 199 217 99 97 100 126 137 147 
95 96 97 103 101 104 113 112 114 
112 109 216 110 111 120 141 132 142 
24 23 82 95 97 98 138 220 224 
120 111 215 103 104 105 175 174 176 
105 107 108 110 120 126 116 130 215 
192 190 217 105 104 106 114 129 133 
126 120 137 118 115 223 29 60 209 
30 29 209 209 60 210 136 124 138 
114 112 129 130 119 131 129 112 216 
102 103 124 116 119 130 98 97 99 
110 126 224 123 127 134 53 54 71 
133 139 140 115 114 223 133 129 139 
105 106 107 220 108 224 107 106 122 
139 218 219 138 124 220 107 122 216 
51 52 81 99 101 102 99 100 101 
123 118 127 130 131 144 148 134 150 
170 172 173 102 101 103 141 142 145 
105 108 220 124 103 220 131 141 221 
15 62 225 127 118 223 108 110 224 
114 133 223 103 105 220 31 30 74 
216 122 218 120 215 222 129 216 218 
144 131 221 61 169 170 137 120 222 
61 13 169 215 130 222 139 129 218 
74 30 209 130 144 222 170 169 172 
14 15 225 98 204 226 94 95 226 
95 98 226 247 197 268 123 135 228 
143 179 230 53 71 229 81 52 229 
68 56 231 57 77 231 142 146 232 
135 149 264 146 143 265 208 161 246 
162 160 227 160 164 227 170 173 236 
145 247 268 78 155 237 50 49 237 
58 59 238 52 53 229 121 123 228 
121 228 230 179 121 230 56 57 231 
145 142 232 193 234 259 193 194 233 
191 73 251 149 148 235 210 152 248 
133 140 239 127 223 239 126 147 240 
138 224 240 211 171 241 69 159 258 
185 186 242 178 177 243 125 182 236 
171 170 236 238 83 247 73 193 259 
202 140 249 49 78 237 77 58 238 
79 21 245 233 80 234 210 60 246 
68 231 265 229 71 264 140 139 249 
136 138 250 8 64 251 73 7 251 
198 63 252 69 25 253 24 82 253 
20 79 254 66 19 254 65 32 255 
31 74 255 134 127 256 141 145 257 
26 69 258 208 27 258 74 209 248 
218 122 244 6 73 259 231 146 265 
149 229 264 42 0 260 2 41 261 
59 2 261 0 4 260 3 50 262 
23 3 262 4 234 260 147 137 243 
122 106 267 235 79 245 83 197 247 
81 235 245 1 51 263 22 1 263 
236 173 267 223 133 239 224 126 240 
178 144 252 75 211 241 219 218 244 
186 189 242 64 207 242 177 72 243 
171 236 266 236 182 266 125 236 267 
62 202 249 173 172 244 21 22 245 
60 208 246 209 210 248 161 163 246 
152 151 248 144 221 252 139 219 249 
145 232 247 153 136 250 7 8 251 
63 178 252 234 5 259 25 24 253 
19 20 254 32 31 255 150 134 256 
221 141 257 27 26 258 234 80 260 
50 237 262 238 59 261 5 6 259 
241 171 266 257 145 268 81 245 263 
51 81 263 41 83 261 80 42 260 
82 23 262 71 175 264 176 68 265 
182 183 266 106 125 267 197 76 268 
237 82 262 83 238 261 183 241 266 
245 22 263 76 257 268 
CELL_TYPES 541
1
1
1
1
3
3
3
3
3
3
3
3
3
3
3
3
3
3
3
3
3
3
3
3
3
3
3
3
3
3
3
3
3
3
3
3
3
3
3
3
3
3
3
3
3
3
3
3
3
3
3
3
3
3
3
3
3
3
3
3
3
3
3
3
3
5
5
5
5
5
5
5
5
5
5
5
5
5
5
5
5
5
5
5
5
5
5
5
5
5
5
5
5
5
5
5
5
5
5
5
5
5
5
5
5
5
5
5
5
5
5
5
5
5
5
5
5
5
5
5
5
5
5
5
5
5
5
5
5
5
5
5
5
5
5
5
5
5
5
5
5
5
5
5
5
5
5
5
5
5
5
5
5
5
5
5
5
5
5
5
5
5
5
5
5
5
5
5
5
5
5
5
5
5
5
5
5
5
5
5
5
5
5
5
5
5
5
5
5
5
5
5
5
5
5
5
5
5
5
5
5
5
5
5
5
5
5
5
5
5
5
5
5
5
5
5
5
5
5
5
5
5
5
5
5
5
5
5
5
5
5
5
5
5
5
5
5
5
5
5
5
5
5
5
5
5
5
5
5
5
5
5
5
5
5
5
5
5
5
5
5
5
5
5
5
5
5
5
5
5
5
5
5
5
5
5
5
5
5
5
5
5
5
5
5
5
5
5
5
5
5
5
5
5
5
5
5
5
5
5
5
5
5
5
5
5
5
5
5
5
5
5
5
5
5
5
5
5
5
5
5
5
5
5
5
5
5
5
5
5
5
5
5
5
5
5
5
5
5
5
5
5
5
5
5
5
5
5
5
5
5
5
5
5
5
5
5
5
5
5
5
5
5
5
5
5
5
5
5
5
5
5
5
5
5
5
5
5
5
5
5
5
5
5
5
5
5
5
5
5
5
5
5
5
5
5
5
5
5
5
5
5
5
5
5
5
5
5
5
5
5
5
5
5
5
5
5
5
5
5
5
5
5
5
5
5
5
5
5
5
5
5
5
5
5
5
5
5
5
5
5
5
5
5
5
5
5
5
5
5
5
5
5
5
5
5
5
5
5
5
5
5
5
5
5
5
5
5
5
5
5
5
5
5
5
5
5
5
5
5
5
5
5
5
5
5
5
5
5
5
5
5
5
5
5
5
5
5
5
5
5
5
5
5
5
5
5
5
5
5
5
5
5
5
5
5
5
5
5
5
5
5
5
5
5
5
5
5
5
5
5
5
5
5
5
5
5
5
5
5
5

POINT_DATA 269
FIELD FieldData 1
v_center_dist 1 269 double
0.0025638044952 0.0025638044952 0.0025638044952 0.0025638044952 0.0073672746032 0.094720476207 0.21794953213 0.4487588918 0.82682814269 
1.3632091461 2.0111978206 2.6551688589 3.1367113794 3.3159046264 3.1367113794 2.6551688589 2.0111978206 1.3632091461 
0.8268281427 0.44875889181 0.21794953213 0.094720476208 0.0073672746032 0.0073672746032 0.094720476207 0.21794953213 0.4487588918 
0.82682814269 1.3632091461 2.0111978206 2.6551688589 3.1367113794 3.3159046264 3.1367113794 2.6551688589 2.0111978206 
1.3632091461 0.8268281427 0.44875889181 0.21794953213 0.094720476208 0.0073672746032 0.0042269990051 0.0062362633139 0.0082330698537 
0.0097262228016 0.010281859975 0.0097262228016 0.0082330698538 0.0062362633139 0.0042269990051 0.0042269990051 0.0062362633139 0.0082330698537 
0.0097262228016 0.010281859975 0.0097262228016 0.0082330698538 0.0062362633139 0.0042269990051 2.5758573211 5.0748661185 3.7073113426 
1.6814622963 1.6172760977 5.3404074282 0.93962902353 0.12729585964 0.12401093084 0.49392632018 0.11390934008 0.11146469327 
3.6363004709 0.49203970278 4.7874294437 3.6363004709 0.45675368099 0.099737175846 0.09098157789 0.24715722045 0.065355873523 
0.061462875623 0.10317702778 0.092050795077 0.11384428621 0.28202693225 0.29816089269 0.62494461867 0.62495165671 1.2391118796 
1.1721543506 2.2092529921 2.2005917736 3.6930314846 3.4903811591 5.5414787834 5.5422267918 7.8728205235 7.448603051 
10.008650879 10.00845292 12.036014458 11.385605638 12.952174667 12.952167338 13.184859238 12.550532253 12.023083214 
12.01068708 10.351289267 9.7899830651 7.9803079341 7.9805572956 5.8206056523 5.5061589015 3.7991181105 3.799107743 
2.3456733038 2.2189123265 2.2189108264 7.1407935516 1.2959794967 10.776785323 1.1636106215 11.590118189 11.685854505 
8.2973781146 1.8560539563 9.6376815135 7.1409235959 3.3995899223 1.8782672592 1.1596934389 4.6923718432 0.90509015375 
0.52107227493 9.2646978178 5.7178811937 10.605154005 5.793217954 3.4377872808 0.94796619756 0.54632266904 0.62188005494 
2.6941458082 0.46057172436 0.27132741859 6.1188414972 0.4029951748 0.22697872417 0.6344463447 7.3001991484 7.1721457956 
6.6668848494 0.23863364294 0.17573254439 0.44859907937 0.31283496034 0.75185101317 1.1817482325 1.6039898671 2.2802146364 
2.9807012343 3.9529304531 1.0080451207 0.28205222708 0.55366660197 4.5654770369 6.7038036466 5.0748661185 7.3237995528 
6.7427041892 6.9789973978 9.3505153045 0.12729585964 0.28815761568 0.25147207068 2.5820054699 3.1977143061 1.2950795512 
11.388456536 8.9563384466 9.721962148 7.2825893918 6.3171845362 4.6172179178 3.9706430551 4.9592544997 2.9546125656 
2.2379639474 1.5752783593 1.1599587599 0.74903966116 0.30453068513 0.42626159599 0.12729522784 0.23875337036 0.21177899143 
0.98924147028 1.9676477844 1.6706103403 1.8846429078 2.6799019985 8.9573493517 6.2767077411 3.4913684194 7.4486283417 
2.605523142 1.6205607112 3.621264688 4.5540844444 4.5165181747 0.55923536636 0.091042779714 1.170801042 5.5061156471 
9.7991774173 0.98319768462 8.2869434737 6.145508229 12.478101663 1.4549302715 4.5953396694 3.4205748069 10.776295994 
4.5890864876 4.9656976399 2.0038713406 0.62090196589 0.091929206252 0.56856138356 0.11410075732 0.27529761516 0.17338667613 
0.10516268249 0.16448788381 9.4090208082 0.063193296578 0.063799653011 2.7038732628 8.753828275 5.7710160976 2.8846743645 
4.2277076999 8.5210968867 0.087804656194 2.8588524223 0.18895350004 5.531998281 4.4022880709 8.0473045817 0.86803940698 
1.9369228264 0.21023939379 0.44821589881 4.6318921777 1.3001325056 0.76669641065 0.84739214917 0.20112811536 0.0081827861726 
0.0081827861726 0.0081827861726 0.0080933204281 0.23011408964 0.27824148909 7.7745987568 11.254831638 0.42002992005 
