# vtk DataFile Version 5.1
vtk output
ASCII
DATASET STRUCTURED_POINTS
DIMENSIONS 50 50 1
SPACING 0.0204081 0.0102041 0
ORIGIN 5e-07 -0.5 0
CELL_DATA 2401
FIELD FieldData 1
vtkGhostType 1 2401 unsigned_char
0 0 0 0 0 0 0 0 0 
0 0 0 0 0 0 0 0 0 
0 0 0 0 0 0 0 0 0 
0 0 0 0 0 0 0 0 0 
0 0 0 0 0 0 0 0 0 
0 0 0 0 0 0 0 0 0 
0 0 0 0 0 0 0 0 0 
0 0 0 0 0 0 0 0 0 
0 0 0 0 0 0 0 0 0 
0 0 0 0 0 0 0 0 0 
0 0 0 0 0 0 0 0 0 
0 0 0 0 0 0 0 0 0 
0 0 0 0 0 0 0 0 0 
0 0 0 0 0 0 0 0 0 
0 0 0 0 0 0 0 0 0 
0 0 0 0 0 0 0 0 0 
0 0 0 0 0 0 0 0 0 
0 0 0 0 0 0 0 0 0 
0 0 0 0 0 0 0 0 0 
0 0 0 0 0 0 0 0 0 
0 0 0 0 0 0 0 0 0 
0 0 0 0 0 0 0 0 0 
0 0 0 0 0 0 0 0 0 
0 0 0 0 0 0 0 0 0 
0 0 0 0 0 0 0 0 0 
0 0 0 0 0 0 0 0 0 
0 0 0 0 0 0 0 0 0 
0 0 0 0 0 0 0 0 0 
0 0 0 0 0 0 0 0 0 
0 0 0 0 0 0 0 0 0 
0 0 0 0 0 0 0 0 0 
0 0 0 0 0 0 0 0 0 
0 0 0 0 0 0 0 0 0 
0 0 0 0 0 0 0 0 0 
0 0 0 0 0 0 0 0 0 
0 0 0 0 0 0 0 0 0 
0 0 0 0 0 0 0 0 0 
0 0 0 0 0 0 0 0 0 
0 0 0 0 0 0 0 0 0 
0 0 0 0 0 0 0 0 0 
0 0 0 0 0 0 0 0 0 
0 0 0 0 0 0 0 0 0 
0 0 0 0 0 0 0 0 0 
0 0 0 0 0 0 0 0 0 
0 0 0 0 0 0 0 0 0 
0 0 0 0 0 0 0 0 0 
0 0 0 0 0 0 0 0 0 
0 0 0 0 0 0 0 0 0 
0 0 0 0 0 0 0 0 0 
0 0 0 0 0 0 0 0 0 
0 0 0 0 0 0 0 0 0 
0 0 0 0 0 0 0 0 0 
0 0 0 0 0 0 0 0 0 
0 0 0 0 0 0 0 0 0 
0 0 0 0 0 0 0 0 0 
0 0 0 0 0 0 0 0 0 
0 0 0 0 0 0 0 0 0 
0 0 0 0 0 0 0 0 0 
0 0 0 0 0 0 0 0 0 
0 0 0 0 0 0 0 0 0 
0 0 0 0 0 0 0 0 0 
0 0 0 0 0 0 0 0 0 
0 0 0 0 0 0 0 0 0 
0 0 0 0 0 0 0 0 0 
0 0 0 0 0 0 0 0 0 
0 0 0 0 0 0 0 0 0 
0 0 0 0 0 0 0 0 0 
0 0 0 0 0 0 0 0 0 
0 0 0 0 0 0 0 0 0 
0 0 0 0 0 0 0 0 0 
0 0 0 0 0 0 0 0 0 
0 0 0 0 0 0 0 0 0 
0 0 0 0 0 0 0 0 0 
0 0 0 0 0 0 0 0 0 
0 0 0 0 0 0 0 0 0 
0 0 0 0 0 0 0 0 0 
0 0 0 0 0 0 0 0 0 
0 0 0 0 0 0 0 0 0 
0 0 0 0 0 0 0 0 0 
0 0 0 0 0 0 0 0 0 
0 0 0 0 0 0 0 0 0 
0 0 0 0 0 0 0 0 0 
0 0 0 0 0 0 0 0 0 
0 0 0 0 0 0 0 0 0 
0 0 0 0 0 0 0 0 0 
0 0 0 0 0 0 0 0 0 
0 0 0 0 0 0 0 0 0 
0 0 0 0 0 0 0 0 0 
0 0 0 0 0 0 0 0 0 
0 0 0 0 0 0 0 0 0 
0 0 0 0 0 0 0 0 0 
0 0 0 0 0 0 0 0 0 
0 0 0 0 0 0 0 0 0 
0 0 0 0 0 0 0 0 0 
0 0 0 0 0 0 0 0 0 
0 0 0 0 0 0 0 0 0 
0 0 0 0 0 0 0 0 0 
0 0 0 0 0 0 0 0 0 
0 0 0 0 0 0 0 0 0 
0 0 0 0 0 0 0 0 0 
0 0 0 0 0 0 0 0 0 
0 0 0 0 0 0 0 0 0 
0 0 0 0 0 0 0 0 0 
0 0 0 0 0 0 0 0 0 
0 0 0 0 0 0 0 0 0 
0 0 0 0 0 0 0 0 0 
0 0 0 0 0 0 0 0 0 
0 0 0 0 0 0 0 0 0 
0 0 0 0 0 0 0 0 0 
0 0 0 0 0 0 0 0 0 
0 0 0 0 0 0 0 0 0 
0 0 0 0 0 0 0 0 0 
0 0 0 0 0 0 0 0 0 
0 0 0 0 0 0 0 0 0 
0 0 0 0 0 0 0 0 0 
0 0 0 0 0 0 0 0 0 
0 0 0 0 0 0 0 0 0 
0 0 0 0 0 0 0 0 0 
0 0 0 0 0 0 0 0 0 
0 0 0 0 0 0 0 0 0 
0 0 0 0 0 0 0 0 0 
0 0 0 0 0 0 0 0 0 
0 0 0 0 0 0 0 0 0 
0 0 0 0 0 0 0 0 0 
0 0 0 0 0 0 0 0 0 
0 0 0 0 0 0 0 0 0 
0 0 0 0 0 0 0 0 0 
0 0 0 0 0 0 0 0 0 
0 0 0 0 0 0 0 0 0 
0 0 0 0 0 0 0 0 0 
0 0 0 0 0 0 0 0 0 
0 0 0 0 0 0 0 0 0 
0 0 0 0 0 0 0 0 0 
0 0 0 0 0 0 0 0 0 
0 0 0 0 0 0 0 0 0 
0 0 0 0 0 0 0 0 0 
0 0 0 0 0 0 0 0 0 
0 0 0 0 0 0 0 0 0 
0 0 0 0 0 0 0 0 0 
0 0 0 0 0 0 0 0 0 
0 0 0 0 0 0 0 0 0 
0 0 0 0 0 0 0 0 0 
0 0 0 0 0 0 0 0 0 
0 0 0 0 0 0 0 0 0 
0 0 0 0 0 0 0 0 0 
0 0 0 0 0 0 0 0 0 
0 0 0 0 0 0 0 0 0 
0 0 0 0 0 0 0 0 0 
0 0 0 0 0 0 0 0 0 
0 0 0 0 0 0 0 0 0 
0 0 0 0 0 0 0 0 0 
0 0 0 0 0 0 0 0 0 
0 0 0 0 0 0 0 0 0 
0 0 0 0 0 0 0 0 0 
0 0 0 0 0 0 0 0 0 
0 0 0 0 0 0 0 0 0 
0 0 0 0 0 0 0 0 0 
0 0 0 0 0 0 0 0 0 
0 0 0 0 0 0 0 0 0 
0 0 0 0 0 0 0 0 0 
0 0 0 0 0 0 0 0 0 
0 0 0 0 0 0 0 0 0 
0 0 0 0 0 0 0 0 0 
0 0 0 0 0 0 0 0 0 
0 0 0 0 0 0 0 0 0 
0 0 0 0 0 0 0 0 0 
0 0 0 0 0 0 0 0 0 
0 0 0 0 0 0 0 0 0 
0 0 0 0 0 0 0 0 0 
0 0 0 0 0 0 0 0 0 
0 0 0 0 0 0 0 0 0 
0 0 0 0 0 0 0 0 0 
0 0 0 0 0 0 0 0 0 
0 0 0 0 0 0 0 0 0 
0 0 0 0 0 0 0 0 0 
0 0 0 0 0 0 0 0 0 
0 0 0 0 0 0 0 0 0 
0 0 0 0 0 0 0 0 0 
0 0 0 0 0 0 0 0 0 
0 0 0 0 0 0 0 0 0 
0 0 0 0 0 0 0 0 0 
0 0 0 0 0 0 0 0 0 
0 0 0 0 0 0 0 0 0 
0 0 0 0 0 0 0 0 0 
0 0 0 0 0 0 0 0 0 
0 0 0 0 0 0 0 0 0 
0 0 0 0 0 0 0 0 0 
0 0 0 0 0 0 0 0 0 
0 0 0 0 0 0 0 0 0 
0 0 0 0 0 0 0 0 0 
0 0 0 0 0 0 0 0 0 
0 0 0 0 0 0 0 0 0 
0 0 0 0 0 0 0 0 0 
0 0 0 0 0 0 0 0 0 
0 0 0 0 0 0 0 0 0 
0 0 0 0 0 0 0 0 0 
0 0 0 0 0 0 0 0 0 
0 0 0 0 0 0 0 0 0 
0 0 0 0 0 0 0 0 0 
0 0 0 0 0 0 0 0 0 
0 0 0 0 0 0 0 0 0 
0 0 0 0 0 0 0 0 0 
0 0 0 0 0 0 0 0 0 
0 0 0 0 0 0 0 0 0 
0 0 0 0 0 0 0 0 0 
0 0 0 0 0 0 0 0 0 
0 0 0 0 0 0 0 0 0 
0 0 0 0 0 0 0 0 0 
0 0 0 0 0 0 0 0 0 
0 0 0 0 0 0 0 0 0 
0 0 0 0 0 0 0 0 0 
0 0 0 0 0 0 0 0 0 
0 0 0 0 0 0 0 0 0 
0 0 0 0 0 0 0 0 0 
0 0 0 0 0 0 0 0 0 
0 0 0 0 0 0 0 0 0 
0 0 0 0 0 0 0 0 0 
0 0 0 0 0 0 0 0 0 
0 0 0 0 0 0 0 0 0 
0 0 0 0 0 0 0 0 0 
0 0 0 0 0 0 0 0 0 
0 0 0 0 0 0 0 0 0 
0 0 0 0 0 0 0 0 0 
0 0 0 0 0 0 0 0 0 
0 0 0 0 0 0 0 0 0 
0 0 0 0 0 0 0 0 0 
0 0 0 0 0 0 0 0 0 
0 0 0 0 0 0 0 0 0 
0 0 0 0 0 0 0 0 0 
0 0 0 0 0 0 0 0 0 
0 0 0 0 0 0 0 0 0 
0 0 0 0 0 0 0 0 0 
0 0 0 0 0 0 0 0 0 
0 0 0 0 0 0 0 0 0 
0 0 0 0 0 0 0 0 0 
0 0 0 0 0 0 0 0 0 
0 0 0 0 0 0 0 0 0 
0 0 0 0 0 0 0 0 0 
0 0 0 0 0 0 0 0 0 
0 0 0 0 0 0 0 0 0 
0 0 0 0 0 0 0 0 0 
0 0 0 0 0 0 0 0 0 
0 0 0 0 0 0 0 0 0 
0 0 0 0 0 0 0 0 0 
0 0 0 0 0 0 0 0 0 
0 0 0 0 0 0 0 0 0 
0 0 0 0 0 0 0 0 0 
0 0 0 0 0 0 0 0 0 
0 0 0 0 0 0 0 0 0 
0 0 0 0 0 0 0 0 0 
0 0 0 0 0 0 0 0 0 
0 0 0 0 0 0 0 0 0 
0 0 0 0 0 0 0 0 0 
0 0 0 0 0 0 0 0 0 
0 0 0 0 0 0 0 0 0 
0 0 0 0 0 0 0 0 0 
0 0 0 0 0 0 0 0 0 
0 0 0 0 0 0 0 0 0 
0 0 0 0 0 0 0 0 0 
0 0 0 0 0 0 0 0 0 
0 0 0 0 0 0 0 0 0 
0 0 0 0 0 0 0 0 0 
0 0 0 0 0 0 0 0 0 
0 0 0 0 0 0 0 0 0 
0 0 0 0 0 0 0 0 0 
0 0 0 0 0 0 0 0 0 
0 0 0 0 0 0 0 
POINT_DATA 2500
FIELD FieldData 3
v_center_dist 1 2500 double
0.0025638668909 0.0045244649744 0.0064850630579 0.026978187097 0.062632519445 0.099751595567 0.15004911912 0.20034664266 0.27918713832 
0.37339494602 0.47962563677 0.63393946241 0.78825328806 0.99103209234 1.2099628952 1.4425624937 1.7070474024 1.9715323112 
2.2346255565 2.4974706154 2.7337986458 2.9303464168 3.1268941878 3.2062050456 3.2793450733 3.2793454482 3.2062054205 
3.1268939863 2.9303462153 2.7337984443 2.497470635 2.2346255761 1.9715323213 1.7070474125 1.4425625037 1.2099630917 
0.99103228879 0.78825342582 0.63393960018 0.47962577454 0.37339488975 0.27918708205 0.20034664123 0.15004911768 0.099751594131 
0.062632518476 0.026978186128 0.0064850630579 0.0045244649744 0.0025638668909 0.0029033000475 0.0051106279814 0.0070712260649 0.036917951923 
0.072572284271 0.11419122364 0.16560718949 0.2162747342 0.31655531806 0.41076312576 0.54588515256 0.70379367725 0.87709049749 
1.1202398851 1.339170688 1.6581939866 1.9226788954 2.2099078504 2.5409073427 2.8037524016 3.1303456699 3.3268934409 
3.5190573482 3.6331725722 3.7063125999 3.7216150618 3.6484750341 3.5210636638 3.3186668883 3.1221191173 2.8045540122 
2.5417089533 2.2099593441 1.9230882685 1.6586033597 1.3471889245 1.1282581216 0.86697656464 0.70941647691 0.55411610333 
0.4084662658 0.31425845809 0.21584605262 0.16554852907 0.11481806487 0.072532705366 0.036878373018 0.0070712260649 0.0051106279814 
0.0029033000475 0.0032427271591 0.0056967909885 0.0076573890719 0.046210980034 0.082512049096 0.12826191444 0.18116525986 0.25096443224 
0.3539234978 0.4481313055 0.60734795332 0.77364789209 0.9953474825 1.2494476779 1.4683784807 1.8403795586 2.1383103883 
2.4714785577 2.8471891288 3.1100341878 3.4886326439 3.723440465 3.9099316884 4.0601400988 4.1271528146 4.1638846753 
4.0907446477 3.9164833559 3.7069875614 3.4803107013 3.1116373894 2.8487923305 2.4716992739 2.1391291245 1.8403733133 
1.4844147573 1.2654839544 0.98074133419 0.78489335364 0.62194013108 0.44353764184 0.34932983413 0.24835479183 0.18104794047 
0.12967312421 0.082432892256 0.046529788224 0.0076573890718 0.0056967909883 0.0032427271591 0.0035821542707 0.0060362241451 0.012200829499 
0.054107844784 0.092451813922 0.14233260523 0.19631914291 0.28565413028 0.38956020985 0.49051408817 0.66881075409 0.84350210692 
1.1136044675 1.3786554706 1.6445600749 2.0222997363 2.3539418812 2.733049265 3.1521837091 3.4494710538 3.8293780352 
4.1199874891 4.3008060285 4.4715733518 4.5448918791 4.5933722301 4.5330142612 4.311903048 4.0953082345 3.8186516654 
3.4475271493 3.153358572 2.7334392036 2.3551699805 2.0220871031 1.6429923683 1.3889970732 1.0945061037 0.86037023037 
0.68976415883 0.50212034024 0.38304380731 0.2813521802 0.19654735186 0.14452818355 0.092333079146 0.054490345812 0.012235306382 
0.006036224145 0.0035821542707 0.0039215813822 0.0063756512567 0.021385524399 0.062004709534 0.10241675835 0.1577707019 0.2168049047 
0.31554051904 0.42424990789 0.55197688893 0.73939298009 0.93940619061 1.2277374468 1.5038648907 1.8264802525 2.2042199139 
2.5754855283 2.9946199723 3.4137544164 3.7902164451 4.1701234265 4.5165345133 4.6916803687 4.9197995426 4.979477782 
5.0111112946 4.9288755065 4.7073227401 4.4857699736 4.1569926295 3.7858681133 3.4150985018 2.9951791334 2.575259765 
2.2038008929 1.8247061581 1.5027618427 1.2082708733 0.9358471071 0.75758818658 0.56994436798 0.41526230837 0.31326933165 
0.21142958949 0.15921966042 0.10697186176 0.062634601422 0.021550153784 0.0063756512565 0.0039215813822 0.0042687173965 0.017571607065 
0.033190113204 0.07351866315 0.11622995604 0.18139905689 0.2404332597 0.33797897032 0.44777146318 0.6331099151 0.82780633538 
1.0299435181 1.3182747743 1.6212258039 2.0225202322 2.4041274978 2.8592964752 3.2973436792 3.7144329174 4.1771806824 
4.5454021224 4.9311896865 5.1807094116 5.4164037038 5.4724762361 5.4713411653 5.3620336058 5.1577773524 4.9507567635 
4.5534897076 4.1841141452 3.7150177092 3.2974361378 2.8447223939 2.4146505809 2.0350318348 1.6313716763 1.3310609648 
1.0307502534 0.81613646979 0.62103685053 0.44154802755 0.33955505083 0.23817663266 0.1703725678 0.11851823122 0.074459864404 
0.033375416766 0.017979272558 0.0042687080293 0.0046787709271 0.030958361172 0.044994702009 0.085298713086 0.12596377 0.2017426912 
0.2640616147 0.36041742161 0.49509055996 0.68313568043 0.91621969067 1.1204808456 1.4158760418 1.7736946188 2.2289407436 
2.6105480092 3.1326083147 3.6081531328 4.0472157804 4.586860573 4.955082013 5.4025569434 5.6757427349 5.9130078649 
5.9654746902 5.997809047 5.866599113 5.6602293212 5.3910408843 4.9724632097 4.6030876473 4.0661813002 3.6084858182 
3.1042047767 2.6303353813 2.2443032842 1.7666954707 1.4663847592 1.127839758 0.86484023777 0.6697406185 0.49287903527 
0.36587927069 0.26492367583 0.18152547517 0.13087108985 0.086998900252 0.045200679748 0.031855957207 0.0046787615598 0.0050888244576 
0.0338643604 0.056799290814 0.096863262807 0.13680242868 0.21147650516 0.28725542636 0.39915999306 0.54460966148 0.73316144577 
0.97191999752 1.211018173 1.5683448567 1.9261634337 2.4008249002 2.8254069662 3.4059201542 3.9189625864 4.4034478933 
4.9851928598 5.3847504418 5.8739242003 6.1559986547 6.409612026 6.4829746444 6.5372010812 6.3805264005 6.1626812901 
5.831325005 5.3914367118 5.0220611494 4.437234727 3.9195354986 3.3636871595 2.8460201817 2.425986331 1.9238194378 
1.5948881707 1.2241651806 0.93958351894 0.71844438648 0.54474455762 0.39256903611 0.291670719 0.19267838254 0.14409790366 
0.10022571407 0.058096672041 0.033482015485 0.0050888150903 0.0054988779881 0.03427441393 0.06532986788 0.10842781253 0.1483669784 
0.22121031912 0.30246978769 0.44867909458 0.594128763 0.7831872111 1.0219457629 1.3285057122 1.7208136716 2.0815621238 
2.5608045456 3.0941941695 3.6792319937 4.2297720399 4.7596800062 5.3414249727 5.8561176987 6.3452914571 6.6362545745 
6.9105355982 7.0223666785 7.0765931154 6.8944536881 6.667444128 6.2716091258 5.8262667007 5.3999590128 4.8082881538 
4.2055968702 3.6231695422 3.0617049821 2.6076693779 2.1055024846 1.6912135933 1.3204906032 1.034133014 0.76714815445 
0.58755940765 0.418812227 0.31811975504 0.21742728307 0.15645129202 0.11021104123 0.065132139255 0.033892069015 0.0054988686209 
0.0059089315186 0.036293781447 0.070432469348 0.11688998019 0.15993152812 0.23393397153 0.32860665193 0.47509566218 0.64364786452 
0.83321297643 1.1118887626 1.4254088713 1.8493807642 2.2415417692 2.7585726232 3.3225720524 3.9269876494 4.5314032464 
5.1424757048 5.7510425289 6.3093006641 6.816658714 7.1238795533 7.4446836627 7.5606514197 7.6159851495 7.4083809756 
7.1578140683 6.7440264322 6.2683543252 5.7686484064 5.1518329688 4.5366584197 3.9300823139 3.3235062081 2.7759018588 
2.2618817903 1.802290084 1.4168160257 1.128682509 0.83057219651 0.6259722931 0.44505541789 0.34436294593 0.23624864862 
0.16120909459 0.11496884379 0.070531554609 0.036224602766 0.0059089221514 0.006318743665 0.041396382916 0.075535070817 0.12172905339 
0.16886876349 0.26007083577 0.35474351616 0.50006284786 0.67109758555 0.92047823493 1.2052733595 1.5223120305 1.9462839234 
2.4189777447 2.9892879788 3.5509499352 4.1553655322 4.843956333 5.5621963328 6.170763157 6.7257884651 7.2659527582 
7.6580276179 7.9788317273 8.0979269081 8.14990194 7.8907872203 7.6389089952 7.2513966204 6.7757245134 6.1149195754 
5.482852598 4.8677199692 4.2611438635 3.5599468732 2.927796821 2.4137767525 1.95842481 1.5206667173 1.1971854283 
0.8896855147 0.67681546158 0.48326817236 0.36439851158 0.24956146094 0.17357359144 0.11972664635 0.075930969964 0.041624018121 
0.0063187441599 0.0067262547962 0.046405171741 0.080637672285 0.12656812659 0.1808329622 0.28176423814 0.38088038039 0.52503003353 
0.71430695483 0.97780642742 1.2986579564 1.6192151897 2.0634251616 2.5706336233 3.2167780361 3.779327818 4.4308291813 
5.1606410698 5.9288267887 6.590483785 7.1422762662 7.7399326248 8.1771902213 8.5129797919 8.6352023965 8.6624708013 
8.3795339792 8.1200039221 7.7587668086 7.2133266498 6.5302933156 5.8138722272 5.1987815188 4.544814883 3.7858504738 
3.1311063433 2.5656717148 2.1145595359 1.6297632176 1.2567727308 0.94879883289 0.73027951743 0.52486663794 0.3777113239 
0.26287427326 0.18969075301 0.12448444892 0.081330385318 0.046425373006 0.0067262552912 0.0071337659275 0.046812682872 0.085740273754 
0.13708520246 0.19279716091 0.29295060591 0.40445500452 0.56298162843 0.76458683467 1.027369903 1.3609579904 1.7286920401 
2.2130726198 2.7222895018 3.3684339147 4.0177020296 4.747513918 5.4773258065 6.2457938076 7.0102044131 7.6071185055 
8.2169668987 8.6542247815 9.0434758384 9.1528993625 9.1750396626 8.9188131207 8.6049776361 8.2661369968 7.6263239628 
6.9456670557 6.2165855961 5.5296828929 4.7707184836 4.0117540743 3.3602175063 2.717566677 2.2258538258 1.7229853534 
1.3494373271 1.0079121511 0.77544141476 0.55526120537 0.40045588312 0.27618708558 0.20580791457 0.1392655883 0.086532001852 
0.046832884137 0.0071337664224 0.0075412770587 0.047220194003 0.089353814137 0.14904940117 0.20476135962 0.30413697367 0.41938258107 
0.61148383247 0.81486671451 1.0769333786 1.4128735861 1.8392749734 2.362720078 2.8739453804 3.5200897932 4.2394376 
5.0641986548 5.7940105432 6.5627608264 7.3634399163 8.0841527794 8.6940011725 9.1312593417 9.5168247793 9.6654682238 
9.687608524 9.4580922621 9.1442567776 8.6927392729 8.0393212759 7.3610407959 6.6319593362 5.7920891963 4.9966220842 
4.2376576749 3.5893286692 2.882790709 2.3190759616 1.8162074892 1.4421019233 1.0838487612 0.80583598219 0.5856557728 
0.42643700767 0.29364609493 0.21693083875 0.15009428669 0.088438357423 0.047240395269 0.0075412775537 0.00794878819 0.049485479647 
0.093963615506 0.15583577725 0.21672555833 0.31727056003 0.44209543571 0.63432519547 0.86514659435 1.1264968542 1.4955864806 
1.9223962891 2.4828828358 3.0256012589 3.7186823871 4.4437386633 5.3060284242 6.11069528 6.9069056673 7.7283133986 
8.4788808499 9.1710354464 9.6062855155 9.9854073979 10.143817107 10.200177385 9.9973714036 9.6121704024 9.1193851182 
8.4523185889 7.7764145361 6.9526489419 6.0824861011 5.2551411434 4.4635612755 3.7658429819 3.0198976064 2.4451003054 
1.9094296249 1.5260520649 1.1318996371 0.84944834779 0.61605034023 0.45163004612 0.31163564044 0.22502583385 0.15760018456 
0.093168445164 0.04904579048 0.0079487886849 0.0083257022258 0.054095281016 0.098573416875 0.16040673395 0.22456544158 0.33998341467 
0.46480829034 0.65716655847 0.88882352515 1.2057199971 1.5782993751 2.0055176048 2.5660041516 3.1903157001 3.9220205886 
4.6480397265 5.5103294875 6.3875399794 7.2717791496 8.0931868809 8.8435377213 9.585199554 10.074868134 10.453990016 
10.617309598 10.685739656 10.454597752 10.045387555 9.5460309635 8.8786552108 8.1222030217 7.24304384 6.3728830059 
5.5455380482 4.665190412 3.9029498793 3.1570045037 2.5836543375 2.0212072365 1.5741029409 1.179950513 0.89610760117 
0.65828038489 0.46961959163 0.32962518595 0.23312082896 0.16355464266 0.097898532904 0.05377587822 0.0083257188202 0.0086304270124 
0.058097710722 0.10318321824 0.16497769066 0.23340568474 0.35686242078 0.48752114498 0.68000792147 0.92145687293 1.2495117929 
1.6610122696 2.0886389205 2.6637269615 3.3037363667 4.1253587902 4.8523407898 5.7227203881 6.623380512 7.6066414529 
8.4580603632 9.2081945927 9.9419097651 10.499084395 10.922572635 11.09080209 11.092765453 10.865109736 10.478604708 
9.9726768088 9.258759541 8.426289681 7.5334387382 6.6632799107 5.8044483965 4.8390779491 4.0470578761 3.2941114011 
2.7222083696 2.0907262193 1.6300262883 1.228001389 0.94276685454 0.68497861085 0.48840893923 0.34761473145 0.24084182596 
0.16950910077 0.10262862064 0.05850596596 0.0086304436069 0.0089351517991 0.058402435509 0.10779301961 0.17321735644 0.24224592791 
0.36567361399 0.50648117414 0.7106169033 0.95767181075 1.2879537303 1.7085425895 2.1817319885 2.7733034369 3.4171570333 
4.2398649541 5.0579007967 5.9581479355 6.8592710026 7.8425319435 8.8229338454 9.5657444474 10.298619976 10.855795748 
11.364095479 11.511414051 11.480269871 11.256540536 10.894298879 10.372243731 9.5644826339 8.7316166645 7.8355629094 
6.9465637856 5.9769531048 5.0129654862 4.2209454132 3.4312182984 2.7969798491 2.160245202 1.6995452947 1.2806036041 
0.97331363549 0.70653033503 0.50742924935 0.36655192275 0.24671006363 0.17546355887 0.10735870838 0.059079774774 0.0089351683935 
0.0092398765858 0.058707160296 0.10988369478 0.18205759961 0.25108617107 0.37448480719 0.51726169433 0.7441621218 0.99388674857 
1.3263956678 1.7486830772 2.2532276488 2.8828799124 3.5305776999 4.3532856207 5.2102025595 6.193575483 7.0951614932 
8.0784224342 9.0461540295 9.9224546584 10.655330187 11.212507101 11.684736902 11.890219424 11.867774289 11.647971335 
11.272475244 10.66289716 9.8702057268 9.0369436479 8.1408898928 7.1182904753 6.1494578131 5.1868530233 4.3948329503 
3.5317715346 2.8664988318 2.2297641847 1.7690643012 1.3298240862 0.99581184417 0.72808205922 0.52644955947 0.38052764972 
0.25229118661 0.18111129828 0.11033781876 0.059384499561 0.0092398931802 0.0095446013724 0.060351282194 0.1126120774 0.18581688121 
0.25992641424 0.38455207947 0.53067300245 0.75757505162 1.0301016864 1.3649104955 1.7958695494 2.303956655 2.9719405655 
3.6439983665 4.4716138564 5.3297874693 6.3661404894 7.3310519839 8.3020745309 9.261050084 10.164247838 11.012040398 
11.5453334 11.962706622 12.168189345 12.255278706 12.039402135 11.528532277 10.918325848 10.166564541 9.3422706314 
8.3259369285 7.2895982721 6.3213697689 5.3607405604 4.5119441683 3.613305505 2.9453427336 2.2992831674 1.8247193972 
1.3577487561 1.0236958763 0.75045079053 0.54322757754 0.39062030597 0.25787230959 0.18669242126 0.112897359 0.060544576421 
0.0095446179668 0.0097729358177 0.063079664812 0.11534046001 0.18853588658 0.26467864217 0.3979633876 0.54408431058 0.77098798144 
1.0443723798 1.4120969677 1.8430560216 2.3546856612 3.0226695717 3.7544598596 4.5906593781 5.4493723791 6.4857253992 
7.5108200529 8.5169705854 9.4759461385 10.379109404 11.264067081 11.82330312 12.240676341 12.446159267 12.542781996 
12.296028461 11.784589311 11.173754537 10.421993229 9.5444691029 8.4972399954 7.4609060689 6.4926775656 5.4862142747 
4.5934781387 3.6948394754 3.0268767834 2.3663259254 1.8526440672 1.385673426 1.0515799085 0.77833482271 0.55095562803 
0.40071296222 0.26345343257 0.18946426809 0.11545689925 0.06310411667 0.009772941318 0.0098863310459 0.065166653595 0.11806884263 
0.19125489194 0.26796771536 0.40605392685 0.5574956187 0.78440091126 1.0579967921 1.431698664 1.8902424938 2.4054146675 
3.0678644802 3.7951215315 4.7097048998 5.568957289 6.5963482549 7.5976136953 8.7044128032 9.690842193 10.593970969 
11.396804189 12.029157075 12.518646061 12.724129189 12.70487621 12.468005711 12.040646344 11.429183225 10.594041603 
9.6588423112 8.6685430623 7.6322138656 6.6311715712 5.5504106435 4.6717937651 3.7763734458 3.1070795773 2.3921955844 
1.8795816469 1.4135980959 1.0794639407 0.79281032166 0.55333512729 0.40547871666 0.26772996047 0.19222437849 0.1180164395 
0.065391160554 0.0098863365461 0.009999726274 0.065280048824 0.12056037137 0.19452334172 0.27125678856 0.40933857134 0.56714705628 
0.79798624639 1.0716622098 1.445364624 1.9140339074 2.4520602056 3.1087437011 3.8357832034 4.755525501 5.6845968506 
6.683125746 7.6844073377 8.7912064455 9.8980055534 10.727232585 11.529541297 12.161894059 12.746965296 12.907002307 
12.84957976 12.613503482 12.228219085 11.62268723 10.708436317 9.7732155195 8.7882928118 7.7871933296 6.6953727478 
5.6146070122 4.7359901339 3.8573732556 3.1329492363 2.4180652434 1.9054513894 1.440818867 1.0965536428 0.80726123404 
0.55571462656 0.40785821593 0.26742285104 0.19378207138 0.12057597975 0.065504555782 0.0099997317743 0.010113121502 0.065393444052 
0.12058197651 0.19781241492 0.27454586175 0.41262321582 0.56869716898 0.8086879847 1.0853276275 1.459030584 1.9241311812 
2.4707345131 3.149622922 3.8764448753 4.7961871729 5.7037317995 6.7699032371 7.77120098 8.8780000879 9.9119940521 
10.859969693 11.662278405 12.294631044 12.805625463 13.024620467 12.994283311 12.759001253 12.332949163 11.683496439 
10.822831032 9.8875887278 8.9025614146 7.8032489381 6.7595739243 5.678803381 4.8001865027 3.8657691409 3.1588188954 
2.4439349024 1.9313211318 1.4507881686 1.1065070318 0.82171214641 0.55809412583 0.41186743241 0.27091471133 0.19347496195 
0.12097268609 0.06561795101 0.010113127002 0.01022651673 0.065432592381 0.12058197074 0.19802371098 0.27783493495 0.41468142035 
0.56869725013 0.80868687408 1.0981421329 1.4713683426 1.9239666669 2.4714539966 3.1754883262 3.9171065472 4.7975587829 
5.7037332535 6.8024484264 7.8579946224 8.9053884433 9.9119839377 10.872459757 11.795015513 12.373830189 12.805624281 
13.024619051 13.134286665 12.886588935 12.334446935 11.684554942 10.90113536 10.001961936 8.9026197782 7.8033066404 
6.7855854264 5.7429997498 4.8185138618 3.8657692854 3.1620247344 2.4698045614 1.9456869503 1.4508682165 1.1066324791 
0.83135717533 0.5604736251 0.41773998849 0.27678726742 0.19313887442 0.12087012351 0.065602309418 0.01022652223 0.01022651673 
0.065432586616 0.12058196498 0.1980237619 0.2778362386 0.4146815015 0.56869733128 0.80868576346 1.0981410222 1.4712038282 
1.9238021525 2.4721734801 3.1762078097 3.9165904971 4.7975913228 5.7037347075 6.8024498804 7.8580250081 8.9053783289 
9.9119738233 10.872448107 11.795437983 12.373829007 12.805623098 13.024617635 13.134285248 12.888086707 12.335944708 
11.685613445 10.902193864 10.000477596 8.9026781419 7.8033643428 6.7856431288 5.7430028884 4.8185140063 3.8657694299 
3.1620254328 2.4698043673 1.9457669982 1.4509482644 1.1067579264 0.83148262264 0.56059076119 0.41855651151 0.27775646215 
0.19276881091 0.12076756092 0.065499746834 0.01022651673 0.010113121502 0.06539343344 0.12058195921 0.19781316915 0.27454801489 
0.4126217443 0.56869741243 0.80868465284 1.0852584385 1.4587934205 1.9236376382 2.4728929636 3.1496126613 3.8760414828 
4.7959845943 5.7037361615 6.7699104073 7.7713738714 8.8780276742 9.9119637089 10.860119944 11.66433785 12.295220277 
12.805621916 13.024616219 13.002190652 12.763223263 12.33744248 11.686671948 10.821405879 9.8860833681 8.9019530431 
7.8034220451 6.75961463 5.6788137439 4.800187724 3.8657695744 3.1588197582 2.4439347968 1.9311414458 1.4510283123 
1.1068833738 0.82321754336 0.55759028919 0.41142571698 0.27062566762 0.19262617091 0.12066499834 0.06539344405 0.010113121502 
0.0099997262737 0.065280038212 0.12056035015 0.19452494544 0.27125979118 0.40933283586 0.56714621887 0.79792757632 1.0715183839 
1.4451746494 1.913241113 2.4527155536 3.1089024638 3.8354924684 4.7554355799 5.6845860491 6.6832504431 7.6847227347 
8.7913765375 9.8980303404 10.729019811 11.533237716 12.163449944 12.747395975 12.91364386 12.865658676 12.621831078 
12.232949325 11.621486534 10.707168781 9.7716891398 8.7875588147 7.7872718111 6.6954223087 5.6146245994 4.7359985794 
3.8573725595 3.1329501876 2.4180652263 1.9052718782 1.4404172462 1.096944853 0.8081185497 0.55458981718 0.4044147801 
0.26799110227 0.19309640086 0.12056037137 0.065280048822 0.009999726274 0.0098863310456 0.065166642984 0.11806564049 0.19125664406 
0.26797156746 0.40604392742 0.55733038826 0.78438596415 1.0577783293 1.4315558782 1.8879641762 2.408124994 3.0681922664 
3.794943454 4.709668259 5.5695077159 6.5965904789 7.598071598 8.7047254008 9.6911317486 10.596200541 11.402137583 
12.031679611 12.524936464 12.730931716 12.7291267 12.480438894 12.031993098 11.414786345 10.592931683 9.6572949115 
8.667630657 7.6320310653 6.6312299874 5.5504354549 4.6718094349 3.7765403139 3.1070806171 2.3921956558 1.8794023105 
1.4130039252 1.0798010191 0.79301955604 0.55158934518 0.4014143081 0.26846133222 0.19261471457 0.11817993056 0.065166653594 
0.0098863310459 0.0097729358175 0.063076993799 0.11533369154 0.18852464187 0.26468334375 0.39783538677 0.54365126877 0.77128044838 
1.0441343063 1.4116335123 1.8407295526 2.3610283832 3.0246107429 3.7543944397 4.5907632763 5.4506296717 6.486381948 
7.5114204613 8.5170020202 9.4765244547 10.381562926 11.27103745 11.825876327 12.257585831 12.457201069 12.557375597 
12.283932765 11.770377996 11.141915924 10.414897496 9.5429006831 8.4963953169 7.4607898516 6.4925922852 5.4862463104 
4.5936312437 3.6951803937 3.0277418546 2.3663260852 1.8523360978 1.3848905382 1.0521458737 0.77792056238 0.54858887318 
0.3984138361 0.26742748038 0.19036584425 0.11557369986 0.063171855779 0.0097729358177 0.0095446010465 0.060345044851 0.11260174259 
0.18579263969 0.25993904994 0.38415626728 0.52997214928 0.75817493261 1.0305112737 1.3643988887 1.7934949289 2.3139317723 
2.977514132 3.645168737 4.4718582936 5.3317516275 6.3675039038 7.3323933307 8.3023947262 9.2619171607 10.166925312 
11.011592829 11.558525694 11.990235198 12.183470421 12.25607162 12.022317663 11.508762893 10.869045503 10.142027075 
9.3431898497 8.3251599769 7.2895486378 6.3213510714 5.361649077 4.5122713235 3.6138204735 2.947094406 2.3006470569 
1.8242227107 1.3567771511 1.0244907283 0.75189029792 0.54483312249 0.39385094835 0.25818415215 0.18811697393 0.11296746915 
0.060565625071 0.0095446113855 0.0092398762598 0.058693856956 0.10986979365 0.18205879823 0.25110231047 0.37382379666 0.51629302979 
0.74506941684 0.99351707995 1.3278999553 1.7462603053 2.2668351614 2.883250637 3.5358437219 4.3542695048 5.2128735832 
6.1937628809 7.0997069828 8.0801387467 9.0473098667 9.9217577554 10.664046275 11.224271248 11.722884565 11.889710519 
11.912275458 11.663577713 11.247147791 10.596175083 9.8423392135 9.0360967607 8.1412916908 7.118307424 6.1494328778 
5.1897941858 4.3924915459 3.5324605533 2.8702557856 2.2333457111 1.7684082382 1.3286637641 0.99683558294 0.73012916321 
0.53139252443 0.38924627982 0.24890278232 0.1814098448 0.11036123844 0.059115868199 0.0092398865988 0.0089351514731 0.058389132169 
0.10780206406 0.17322205876 0.242265571 0.36498688138 0.50498570534 0.71168705582 0.95652288621 1.2914298929 1.7081777967 
2.1822254333 2.7738773938 3.4265187068 4.2449444897 5.0571344047 5.9610793999 6.867020635 7.8474523989 8.8211489268 
9.5742112019 10.316499722 10.872955771 11.375774658 11.545914357 11.568479296 11.288406539 10.957783569 10.302413223 
9.5349013113 8.7290036717 7.8341986018 6.9465963889 5.9768523411 5.0179392945 4.2206366546 3.4301611524 2.8029544398 
2.1660443652 1.6984248314 1.2795907123 0.97554093086 0.71035839903 0.51094249412 0.38109626641 0.23962141248 0.17212847496 
0.10749558927 0.058811143412 0.0089351618121 0.0086304266864 0.058084407383 0.1031395162 0.16494574337 0.23342883153 0.35614996609 
0.48633227317 0.6795291587 0.91952869248 1.2549598304 1.6529767616 2.0934159835 2.6645041506 3.3171936916 4.1201375964 
4.8550513977 5.7283959189 6.6343342872 7.6147660511 8.4594427258 9.2237651166 9.9689531681 10.51871241 10.913008357 
11.09709775 11.209265585 10.885297801 10.531552069 9.9754999314 9.227463409 8.4219105827 7.530413961 6.6621433064 
5.8042718044 4.8460844033 4.0494208957 3.2964549175 2.7228756447 2.0987430194 1.6284414245 1.2297284176 0.94683781284 
0.69058763485 0.49049246381 0.3606462361 0.23034004265 0.16564449507 0.1028919585 0.058506418625 0.0086304370255 0.0083257018997 
0.054054968292 0.098476968339 0.16023385773 0.22459209207 0.33938623634 0.463262144 0.65775852311 0.88498213768 1.2077368278 
1.5729626915 2.0134246061 2.5711303278 3.2067708709 3.9185051396 4.6534200481 5.5221466682 6.4016479394 7.2641278955 
8.0977365248 8.8621294345 9.6192234693 10.055946109 10.450242056 10.635094269 10.688993036 10.435499086 10.070521963 
9.5504258478 8.8840495899 8.1155107055 7.2402057885 6.3722537099 5.5353480398 4.674229512 3.9157146608 3.1627486826 
2.5847646401 2.0276497774 1.5745474768 1.1849078338 0.89873979745 0.66742968627 0.4700424335 0.34170699287 0.22247425968 
0.1606793078 0.098288327738 0.053951809092 0.0083257122388 0.0079487787057 0.049392420432 0.093814420479 0.1555219721 0.21687026553 
0.31631610717 0.44019201483 0.63598788753 0.86218904217 1.1286570984 1.4929486213 1.9334332286 2.4911389504 3.0267028549 
3.7168726829 4.4517886984 5.3205153186 6.1016648388 6.9024216945 7.7360303238 8.5004937523 9.1769134852 9.5931653238 
9.9874757545 10.173090789 10.166383043 9.9857003709 9.6084367528 9.1253517641 8.4589755063 7.7782327336 6.9499976161 
6.0823641134 5.2454584433 4.4673105424 3.7820084259 3.0290424477 2.4466536356 1.9173130344 1.529726893 1.14008725 
0.85064178206 0.61933167088 0.45302475267 0.32576485957 0.21466279451 0.15571412054 0.093684696972 0.049348178325 0.0079487828937 
0.0075412675745 0.0468330762 0.089151872618 0.14947843033 0.20488105077 0.30105599795 0.41712188566 0.61421725194 0.81337133858 
1.0792380812 1.4129345512 1.8534418512 2.3543892898 2.8804634191 3.5282224997 4.2501573488 5.0507272067 5.7858936514 