# vtk DataFile Version 5.1
vtk output
ASCII
DATASET STRUCTURED_POINTS
DIMENSIONS 50 50 1
SPACING 0.0204081 0.0102041 0
ORIGIN -0.699999 -0.2 0
CELL_DATA 2401
FIELD FieldData 1
vtkGhostType 1 2401 unsigned_char
0 0 0 0 0 0 0 0 0 
0 0 0 0 0 0 0 0 0 
0 0 0 0 0 0 0 0 0 
0 0 0 0 0 0 0 0 0 
0 0 0 0 0 0 0 0 0 
0 0 0 0 0 0 0 0 0 
0 0 0 0 0 0 0 0 0 
0 0 0 0 0 0 0 0 0 
0 0 0 0 0 0 0 0 0 
0 0 0 0 0 0 0 0 0 
0 0 0 0 0 0 0 0 0 
0 0 0 0 0 0 0 0 0 
0 0 0 0 0 0 0 0 0 
0 0 0 0 0 0 0 0 0 
0 0 0 0 0 0 0 0 0 
0 0 0 0 0 0 0 0 0 
0 0 0 0 0 0 0 0 0 
0 0 0 0 0 0 0 0 0 
0 0 0 0 0 0 0 0 0 
0 0 0 0 0 0 0 0 0 
0 0 0 0 0 0 0 0 0 
0 0 0 0 0 0 0 0 0 
0 0 0 0 0 0 0 0 0 
0 0 0 0 0 0 0 0 0 
0 0 0 0 0 0 0 0 0 
0 0 0 0 0 0 0 0 0 
0 0 0 0 0 0 0 0 0 
0 0 0 0 0 0 0 0 0 
0 0 0 0 0 0 0 0 0 
0 0 0 0 0 0 0 0 0 
0 0 0 0 0 0 0 0 0 
0 0 0 0 0 0 0 0 0 
0 0 0 0 0 0 0 0 0 
0 0 0 0 0 0 0 0 0 
0 0 0 0 0 0 0 0 0 
0 0 0 0 0 0 0 0 0 
0 0 0 0 0 0 0 0 0 
0 0 0 0 0 0 0 0 0 
0 0 0 0 0 0 0 0 0 
0 0 0 0 0 0 0 0 0 
0 0 0 0 0 0 0 0 0 
0 0 0 0 0 0 0 0 0 
0 0 0 0 0 0 0 0 0 
0 0 0 0 0 0 0 0 0 
0 0 0 0 0 0 0 0 0 
0 0 0 0 0 0 0 0 0 
0 0 0 0 0 0 0 0 0 
0 0 0 0 0 0 0 0 0 
0 0 0 0 0 0 0 0 0 
0 0 0 0 0 0 0 0 0 
0 0 0 0 0 0 0 0 0 
0 0 0 0 0 0 0 0 0 
0 0 0 0 0 0 0 0 0 
0 0 0 0 0 0 0 0 0 
0 0 0 0 0 0 0 0 0 
0 0 0 0 0 0 0 0 0 
0 0 0 0 0 0 0 0 0 
0 0 0 0 0 0 0 0 0 
0 0 0 0 0 0 0 0 0 
0 0 0 0 0 0 0 0 0 
0 0 0 0 0 0 0 0 0 
0 0 0 0 0 0 0 0 0 
0 0 0 0 0 0 0 0 0 
0 0 0 0 0 0 0 0 0 
0 0 0 0 0 0 0 0 0 
0 0 0 0 0 0 0 0 0 
0 0 0 0 0 0 0 0 0 
0 0 0 0 0 0 0 0 0 
0 0 0 0 0 0 0 0 0 
0 0 0 0 0 0 0 0 0 
0 0 0 0 0 0 0 0 0 
0 0 0 0 0 0 0 0 0 
0 0 0 0 0 0 0 0 0 
0 0 0 0 0 0 0 0 0 
0 0 0 0 0 0 0 0 0 
0 0 0 0 0 0 0 0 0 
0 0 0 0 0 0 0 0 0 
0 0 0 0 0 0 0 0 0 
0 0 0 0 0 0 0 0 0 
0 0 0 0 0 0 0 0 0 
0 0 0 0 0 0 0 0 0 
0 0 0 0 0 0 0 0 0 
0 0 0 0 0 0 0 0 0 
0 0 0 0 0 0 0 0 0 
0 0 0 0 0 0 0 0 0 
0 0 0 0 0 0 0 0 0 
0 0 0 0 0 0 0 0 0 
0 0 0 0 0 0 0 0 0 
0 0 0 0 0 0 0 0 0 
0 0 0 0 0 0 0 0 0 
0 0 0 0 0 0 0 0 0 
0 0 0 0 0 0 0 0 0 
0 0 0 0 0 0 0 0 0 
0 0 0 0 0 0 0 0 0 
0 0 0 0 0 0 0 0 0 
0 0 0 0 0 0 0 0 0 
0 0 0 0 0 0 0 0 0 
0 0 0 0 0 0 0 0 0 
0 0 0 0 0 0 0 0 0 
0 0 0 0 0 0 0 0 0 
0 0 0 0 0 0 0 0 0 
0 0 0 0 0 0 0 0 0 
0 0 0 0 0 0 0 0 0 
0 0 0 0 0 0 0 0 0 
0 0 0 0 0 0 0 0 0 
0 0 0 0 0 0 0 0 0 
0 0 0 0 0 0 0 0 0 
0 0 0 0 0 0 0 0 0 
0 0 0 0 0 0 0 0 0 
0 0 0 0 0 0 0 0 0 
0 0 0 0 0 0 0 0 0 
0 0 0 0 0 0 0 0 0 
0 0 0 0 0 0 0 0 0 
0 0 0 0 0 0 0 0 0 
0 0 0 0 0 0 0 0 0 
0 0 0 0 0 0 0 0 0 
0 0 0 0 0 0 0 0 0 
0 0 0 0 0 0 0 0 0 
0 0 0 0 0 0 0 0 0 
0 0 0 0 0 0 0 0 0 
0 0 0 0 0 0 0 0 0 
0 0 0 0 0 0 0 0 0 
0 0 0 0 0 0 0 0 0 
0 0 0 0 0 0 0 0 0 
0 0 0 0 0 0 0 0 0 
0 0 0 0 0 0 0 0 0 
0 0 0 0 0 0 0 0 0 
0 0 0 0 0 0 0 0 0 
0 0 0 0 0 0 0 0 0 
0 0 0 0 0 0 0 0 0 
0 0 0 0 0 0 0 0 0 
0 0 0 0 0 0 0 0 0 
0 0 0 0 0 0 0 0 0 
0 0 0 0 0 0 0 0 0 
0 0 0 0 0 0 0 0 0 
0 0 0 0 0 0 0 0 0 
0 0 0 0 0 0 0 0 0 
0 0 0 0 0 0 0 0 0 
0 0 0 0 0 0 0 0 0 
0 0 0 0 0 0 0 0 0 
0 0 0 0 0 0 0 0 0 
0 0 0 0 0 0 0 0 0 
0 0 0 0 0 0 0 0 0 
0 0 0 0 0 0 0 0 0 
0 0 0 0 0 0 0 0 0 
0 0 0 0 0 0 0 0 0 
0 0 0 0 0 0 0 0 0 
0 0 0 0 0 0 0 0 0 
0 0 0 0 0 0 0 0 0 
0 0 0 0 0 0 0 0 0 
0 0 0 0 0 0 0 0 0 
0 0 0 0 0 0 0 0 0 
0 0 0 0 0 0 0 0 0 
0 0 0 0 0 0 0 0 0 
0 0 0 0 0 0 0 0 0 
0 0 0 0 0 0 0 0 0 
0 0 0 0 0 0 0 0 0 
0 0 0 0 0 0 0 0 0 
0 0 0 0 0 0 0 0 0 
0 0 0 0 0 0 0 0 0 
0 0 0 0 0 0 0 0 0 
0 0 0 0 0 0 0 0 0 
0 0 0 0 0 0 0 0 0 
0 0 0 0 0 0 0 0 0 
0 0 0 0 0 0 0 0 0 
0 0 0 0 0 0 0 0 0 
0 0 0 0 0 0 0 0 0 
0 0 0 0 0 0 0 0 0 
0 0 0 0 0 0 0 0 0 
0 0 0 0 0 0 0 0 0 
0 0 0 0 0 0 0 0 0 
0 0 0 0 0 0 0 0 0 
0 0 0 0 0 0 0 0 0 
0 0 0 0 0 0 0 0 0 
0 0 0 0 0 0 0 0 0 
0 0 0 0 0 0 0 0 0 
0 0 0 0 0 0 0 0 0 
0 0 0 0 0 0 0 0 0 
0 0 0 0 0 0 0 0 0 
0 0 0 0 0 0 0 0 0 
0 0 0 0 0 0 0 0 0 
0 0 0 0 0 0 0 0 0 
0 0 0 0 0 0 0 0 0 
0 0 0 0 0 0 0 0 0 
0 0 0 0 0 0 0 0 0 
0 0 0 0 0 0 0 0 0 
0 0 0 0 0 0 0 0 0 
0 0 0 0 0 0 0 0 0 
0 0 0 0 0 0 0 0 0 
0 0 0 0 0 0 0 0 0 
0 0 0 0 0 0 0 0 0 
0 0 0 0 0 0 0 0 0 
0 0 0 0 0 0 0 0 0 
0 0 0 0 0 0 0 0 0 
0 0 0 0 0 0 0 0 0 
0 0 0 0 0 0 0 0 0 
0 0 0 0 0 0 0 0 0 
0 0 0 0 0 0 0 0 0 
0 0 0 0 0 0 0 0 0 
0 0 0 0 0 0 0 0 0 
0 0 0 0 0 0 0 0 0 
0 0 0 0 0 0 0 0 0 
0 0 0 0 0 0 0 0 0 
0 0 0 0 0 0 0 0 0 
0 0 0 0 0 0 0 0 0 
0 0 0 0 0 0 0 0 0 
0 0 0 0 0 0 0 0 0 
0 0 0 0 0 0 0 0 0 
0 0 0 0 0 0 0 0 0 
0 0 0 0 0 0 0 0 0 
0 0 0 0 0 0 0 0 0 
0 0 0 0 0 0 0 0 0 
0 0 0 0 0 0 0 0 0 
0 0 0 0 0 0 0 0 0 
0 0 0 0 0 0 0 0 0 
0 0 0 0 0 0 0 0 0 
0 0 0 0 0 0 0 0 0 
0 0 0 0 0 0 0 0 0 
0 0 0 0 0 0 0 0 0 
0 0 0 0 0 0 0 0 0 
0 0 0 0 0 0 0 0 0 
0 0 0 0 0 0 0 0 0 
0 0 0 0 0 0 0 0 0 
0 0 0 0 0 0 0 0 0 
0 0 0 0 0 0 0 0 0 
0 0 0 0 0 0 0 0 0 
0 0 0 0 0 0 0 0 0 
0 0 0 0 0 0 0 0 0 
0 0 0 0 0 0 0 0 0 
0 0 0 0 0 0 0 0 0 
0 0 0 0 0 0 0 0 0 
0 0 0 0 0 0 0 0 0 
0 0 0 0 0 0 0 0 0 
0 0 0 0 0 0 0 0 0 
0 0 0 0 0 0 0 0 0 
0 0 0 0 0 0 0 0 0 
0 0 0 0 0 0 0 0 0 
0 0 0 0 0 0 0 0 0 
0 0 0 0 0 0 0 0 0 
0 0 0 0 0 0 0 0 0 
0 0 0 0 0 0 0 0 0 
0 0 0 0 0 0 0 0 0 
0 0 0 0 0 0 0 0 0 
0 0 0 0 0 0 0 0 0 
0 0 0 0 0 0 0 0 0 
0 0 0 0 0 0 0 0 0 
0 0 0 0 0 0 0 0 0 
0 0 0 0 0 0 0 0 0 
0 0 0 0 0 0 0 0 0 
0 0 0 0 0 0 0 0 0 
0 0 0 0 0 0 0 0 0 
0 0 0 0 0 0 0 0 0 
0 0 0 0 0 0 0 0 0 
0 0 0 0 0 0 0 0 0 
0 0 0 0 0 0 0 0 0 
0 0 0 0 0 0 0 0 0 
0 0 0 0 0 0 0 0 0 
0 0 0 0 0 0 0 0 0 
0 0 0 0 0 0 0 0 0 
0 0 0 0 0 0 0 0 0 
0 0 0 0 0 0 0 0 0 
0 0 0 0 0 0 0 0 0 
0 0 0 0 0 0 0 0 0 
0 0 0 0 0 0 0 0 0 
0 0 0 0 0 0 0 0 0 
0 0 0 0 0 0 0 0 0 
0 0 0 0 0 0 0 
POINT_DATA 2500
FIELD FieldData 3
v_center_dist 1 2500 double
0.0025638448586 0.0040442890474 0.0062318758166 0.032021656821 0.069592366899 0.10332883777 0.14375970151 0.21097769824 0.27819569497 
0.37726282916 0.51763638628 0.6580099434 0.79838350053 1.0037269946 1.2498612456 1.4959954966 1.7421297475 1.9882639985 
2.2052155449 2.3636918556 2.5221681663 2.680644477 2.8391207877 2.9975970984 3.1560734091 3.3021829536 3.0913710736 
2.8805591935 2.6697473135 2.4589354335 2.2481235534 2.0373116734 1.8264997934 1.6156879133 1.4048760333 1.1940641533 
1.1024419738 1.0178361664 0.9332303589 0.84862455143 0.76401874397 0.67941293651 0.59480712905 0.51020132159 0.42559551412 
0.34098970666 0.2563838992 0.17177809174 0.087172284275 0.0025664768133 0.0028655809491 0.0044771884118 0.0068342324831 0.043566107127 
0.079030017593 0.11265771414 0.16257708411 0.2294213786 0.29663937533 0.43823118497 0.5786047421 0.71897829922 0.85935185634 
1.2084724517 1.4546067027 1.7007409536 1.9468752046 2.1930094555 2.6899270343 2.848403345 3.0068796557 3.1653559664 
3.3238322771 3.4823085878 3.6407848985 3.6805559697 3.4619202787 3.2511083987 3.0402965186 2.8294846386 2.6186727586 
2.4078608785 2.1970489985 1.9862371185 1.7754252384 1.4402299548 1.1269102671 1.0423044596 0.95769865214 0.87309284468 
0.78848703722 0.70388122976 0.6192754223 0.53466961483 0.45006380737 0.36545799991 0.28085219245 0.19624638498 0.11164057752 
0.0026859329388 0.0031897422317 0.0049751337904 0.018076879797 0.055151875412 0.088654997046 0.12198659052 0.18240652515 0.24786505897 
0.35433244179 0.49902842341 0.63957309791 0.77994665503 0.99936640743 1.4092569418 1.6593521597 1.9054864107 2.1516206616 
2.3977549126 3.0194086808 3.3331148344 3.4915911451 3.6500674558 3.8085437665 3.9670200772 4.1254963879 4.0597793269 
3.8324694838 3.6216576038 3.4108457238 3.2000338437 2.9892219637 2.7784100837 2.5675982036 2.3567863236 2.1459744436 
1.6561410102 1.1513785603 1.0667727529 0.98216694539 0.89756113793 0.81295533047 0.728349523 0.64374371554 0.55913790808 
0.47453210062 0.38992629316 0.30532048569 0.22071467823 0.13610887077 0.0028046896657 0.0035335000995 0.0055635263769 0.029194069204 
0.064294685254 0.097157675829 0.13999396999 0.2022359662 0.26957839137 0.41427437299 0.55897035461 0.70054145372 0.84091501085 
1.1518361213 1.5617266556 1.8640976168 2.1102318677 2.3563661187 2.6904544727 3.3440683094 3.8178263238 3.9763026345 
4.1347789452 4.2932552559 4.4517315666 4.6102078772 4.4390026841 4.203018689 3.9922068089 3.7813949289 3.5705830489 
3.3597711688 3.1489592888 2.9381474088 2.7273355287 2.5165236487 1.8720520657 1.1758468536 1.0912410461 1.0066352386 
0.92202943118 0.83742362371 0.75281781625 0.66821200879 0.58360620133 0.49900039387 0.4143945864 0.32978877894 0.24518297148 
0.14042564255 0.0029234463926 0.0038907712676 0.0060864804774 0.039774013937 0.072114020486 0.10409136478 0.15398106111 0.21758634706 
0.31695787459 0.47421630419 0.61891228581 0.76150980954 0.90188336666 1.3043058352 1.7141963695 2.0688430738 2.3149773248 
2.5611115757 3.0151141012 3.668727938 4.3025378131 4.4610141238 4.6194904345 4.7779667452 4.9364430559 5.0544423373 
4.8182260413 4.5820097454 4.3627560141 4.1519441341 3.941132254 3.730320374 3.5195084939 3.3086966139 3.0978847339 
2.8437049591 2.0879631212 1.3322212832 1.1157093393 1.0311035319 0.94649772442 0.86189191696 0.7772861095 0.69268030204 
0.60807449457 0.52346868711 0.43886287965 0.35425707219 0.26965126473 0.14054439928 0.0030422031194 0.0042710454472 0.0067691990149 
0.039406434761 0.079581690411 0.11573263865 0.16883648992 0.23157343817 0.33935689396 0.51944147866 0.678854217 0.82247816535 
1.0468850148 1.4567755491 1.8666660834 2.2735885309 2.5197227818 2.7658570328 3.3397737298 3.9933875666 4.6470014033 
4.9457256132 5.1042019239 5.2626782346 5.4211545453 5.4336656945 5.1974493986 4.9612331026 4.7333052192 4.5224933392 
4.3116814592 4.1008695791 3.8900576991 3.679245819 3.468433939 3.0596160146 2.3038741766 1.5481323387 1.1401776326 
1.0555718251 0.97096601767 0.88636021021 0.80175440275 0.71714859528 0.63254278782 0.54793698036 0.4633311729 0.37872536544 
0.27816535216 0.140663156 0.0031609598463 0.0046613539488 0.0073049959032 0.045135260782 0.084833314761 0.12911394539 0.18463905628 
0.26162281543 0.3655737799 0.54184049802 0.72192508272 0.88344652117 1.1993547286 1.609245263 2.0191357973 2.4290263316 
2.7244682389 3.0108195216 3.6644333584 4.3180471951 4.9716610319 5.4304371026 5.5889134133 5.747389724 5.9058660347 
5.8128890518 5.5766727558 5.3404564598 5.1042401638 4.8930425443 4.6822306643 4.4714187843 4.2606069042 4.0497950242 
3.8389831441 3.27552707 2.5197852321 1.7640433942 1.1646459258 1.0800401184 0.99543431092 0.91082850346 0.82622269599 
0.74161688853 0.65701108107 0.57240527361 0.48779946614 0.40319365868 0.27828410889 0.14078191273 0.0032797165732 0.0050675130691 
0.013813746522 0.057129369669 0.094488005247 0.13805755243 0.19582078124 0.29330217045 0.39725313492 0.56423951738 0.74432410209 
0.9302526577 1.3495786738 1.7617149768 2.1716055112 2.5814960455 2.9292136959 3.3354791502 3.989092987 4.6427068237 
5.2963206605 5.915148592 6.0736249027 6.2321012134 6.3905775241 6.192112409 5.955896113 5.719679817 5.483463521 
5.2635917495 5.0527798694 4.8419679894 4.6311561094 4.4203442293 4.2095323493 3.4914381255 2.7356962875 1.9799544496 
1.2242126117 1.1045084116 1.0199026042 0.9352967967 0.85069098924 0.76608518178 0.68147937432 0.59687356685 0.51226775939 
0.41590506177 0.27840286562 0.14090066946 0.0033984733001 0.0054775883622 0.0093068664612 0.058170230716 0.10423633492 0.14700115946 
0.21450573484 0.31302588374 0.42852771065 0.58945861638 0.78085757352 1.0262041221 1.4369479739 1.8727096053 2.3084712368 
2.7339657594 3.133959153 3.6601387788 4.3137526155 4.9673664523 5.620980289 6.2745941258 6.558336392 6.7168127027 
6.8075520622 6.5713357662 6.3351194702 6.0989031742 5.8626868783 5.6341409546 5.4233290746 5.2125171945 5.0017053145 
4.7908934345 4.4630910189 3.7073491809 2.951607343 2.1958655051 1.4401236671 1.1289767049 1.0443708974 0.95976508995 
0.87515928249 0.79055347503 0.70594766756 0.6213418601 0.53673605264 0.4160238185 0.27852162234 0.14101942618 0.003517230027 
0.0058996838715 0.0092403918581 0.063074042425 0.10953323033 0.16143619192 0.23385944098 0.33115621928 0.44952451672 0.63146248933 
0.82286144647 1.1239324574 1.5243172741 1.9600789055 2.3958405369 2.8316021683 3.2823353325 3.9847984074 4.6384122441 
5.2920260809 5.9456399176 6.5992537544 7.0430478814 7.2015241921 7.1867754194 6.9505591234 6.7143428274 6.4781265314 
6.2419102355 6.0056939395 5.7938782797 5.5830663997 5.3722545196 5.1614426396 4.6790020743 3.9232602364 3.1675183985 
2.4117765605 1.6560347226 1.1534449981 1.0688391907 0.9842333832 0.89962757573 0.81502176827 0.73041596081 0.64581015335 
0.55364477138 0.41614257523 0.27864037907 0.14113818291 0.0036359867538 0.0063217793808 0.025671269549 0.072272400188 0.11574123884 
0.17705508887 0.25321314711 0.34928655482 0.49592812701 0.67346636229 0.86486531942 1.2216607926 1.6116865742 2.0474482056 
2.483209837 2.9189714684 3.5330844433 4.264540002 4.9470416354 5.6166857094 6.2702995462 6.9239133829 7.5277593708 
7.6862356815 7.5659987766 7.3297824806 7.0935661846 6.8573498887 6.6211335927 6.3849172967 6.1644274848 5.9536156048 
5.7428037248 5.5319918447 4.8949131298 4.1391712919 3.3834294539 2.627687616 1.8719457781 1.1779132914 1.0933074839 
1.0087016764 0.92409586898 0.83949006152 0.75488425406 0.6702784466 0.55376352811 0.41626133195 0.2787591358 0.14125693964 
0.0037547434807 0.0067393097847 0.042464231995 0.082761148059 0.12235056608 0.19161014765 0.27256685324 0.36990090575 0.54233173729 
0.71547023524 0.961917024 1.3193891279 1.6990558743 2.1348175058 2.5705791372 3.0063407686 3.7838335541 4.5389441352 
5.2214457686 5.903947402 6.5864490354 7.2485730115 7.9021868483 8.1709471709 7.9452221338 7.7090058378 7.4727895419 
7.2365732459 7.0003569499 6.7641406539 6.53497669 6.3241648099 6.1133529299 5.8665660232 5.1108241852 4.3550823473 
3.5993405094 2.8435986715 2.0878568335 1.3321149956 1.1177757772 1.0331699697 0.94856416223 0.86395835477 0.77935254731 
0.691384481 0.55388228484 0.41638008868 0.27887789252 0.14137569637 0.0038735002076 0.007153354743 0.049837337288 0.090843943073 
0.12895989333 0.20616520642 0.28715394939 0.41541486444 0.58873534758 0.76116617912 1.0596453593 1.4171174632 1.7864251745 
2.2221868059 2.6579484373 3.2322011341 4.0345826649 4.8133482684 5.4958499018 6.1783515352 6.8608531686 7.543354802 
8.2258564354 8.560661787 8.324445491 8.088229195 7.8520128991 7.6157966031 7.3795803071 7.1433640111 6.9071477152 
6.6947140151 6.483902135 6.0824770786 5.3267352407 4.5709934028 3.8152515648 3.0595097269 2.303767889 1.5480260511 
1.1422440704 1.0576382629 0.97303245548 0.88842664801 0.80382084055 0.69150323772 0.55400104157 0.41649884541 0.27899664925 
0.14149445309 0.0039922569345 0.0075673997013 0.052444932526 0.094148765482 0.13754995991 0.2134066439 0.29274870928 0.43324207146 
0.60916262883 0.7850831862 1.1573736945 1.5148457985 1.8737944746 2.309556106 2.7453177375 3.4829502449 4.2853317757 
5.0877133065 5.7702540351 6.4527556685 7.1352573019 7.8177589353 8.5002605686 8.9084955792 8.6994838862 8.4674525523 
8.2312362563 7.9950199603 7.7588036643 7.5225873684 7.2863710724 7.0652632202 6.8544513402 6.2983881341 5.5426462962 
4.7869044582 4.0311626203 3.2754207824 2.5196789445 1.7639371065 1.1667123636 1.0821065562 0.99750074872 0.91289494126 
0.8282891338 0.69162199445 0.55411979829 0.41661760213 0.27911540598 0.14161320982 0.0041110136613 0.007947434095 0.05544133798 
0.097406732961 0.14759342939 0.21899085489 0.31597483305 0.45106927848 0.62698983585 0.84968149935 1.2391711827 1.6125741337 
1.9700462377 2.3969254062 2.9313178249 3.7336993557 4.5360808865 5.3384624173 6.0446581683 6.7271598017 7.4096614351 
8.0921630685 8.7343090517 9.2242119285 9.0152002355 8.8061885424 8.5971768494 8.3742433175 8.1380270215 7.9018107256 
7.6655944296 7.4358124254 7.2250005453 6.5142991896 5.7585573516 5.0028155137 4.2470736758 3.4913318378 2.7355899999 
1.979848162 1.2241063241 1.1065748494 1.021969042 0.93736323451 0.82924294733 0.69174075118 0.55423855502 0.41673635886 
0.2792341627 0.14173196655 0.0042297703882 0.0083075270097 0.057444935929 0.10607978844 0.15763689888 0.22457506587 0.34325449522 
0.47749670563 0.64481704287 0.92468723132 1.3141769147 1.7036665981 2.0677745729 2.4842947063 3.1820669357 3.9844484665 
4.7868299973 5.5892115281 6.3190623015 7.0015639349 7.6840655683 8.3665672017 8.9333690393 9.4904657832 9.3309165847 
9.1219048917 8.9128931987 8.7038815057 8.4948698127 8.2810340828 8.0448177868 7.8086014908 7.485952083 6.730210245 
5.9744684071 5.2187265692 4.4629847312 3.7072428933 2.9515010554 2.1957592174 1.4400173795 1.1310431427 1.0464373352 
0.96183152776 0.82936170406 0.6918595079 0.55435731175 0.41685511559 0.27935291943 0.14185072327 0.0043485271151 0.0086676199244 
0.058245529199 0.11211050318 0.16768036836 0.23629194697 0.37053415738 0.5047763678 0.66264424989 0.9996929633 1.3891826467 
1.7786723301 2.1655029082 2.6304345157 3.4328160465 4.2351975773 5.0375791081 5.8399606389 6.5934664347 7.2759680681 
7.9584697015 8.5753322829 9.1324290268 9.6895257708 9.646632934 9.437621241 9.228609548 9.019597855 8.8105861619 
8.6015744689 8.3925627759 8.1835510829 7.7018631384 6.9461213005 6.1903794626 5.4346376246 4.6788957867 3.9231539488 
3.1674121108 2.4116702729 1.655928435 1.1555114359 1.0709056285 0.96698265695 0.82948046079 0.69197826463 0.55447606847 
0.41697387232 0.27947167616 0.14196948 0.004467283842 0.0090277128392 0.060404472965 0.11391754611 0.17032214377 0.25409548052 
0.39742886159 0.53205602996 0.68520901188 1.0746986953 1.4641883787 1.8536780621 2.2342855243 2.8811836265 3.6835651573 
4.4859466881 5.2883282189 6.0907097497 6.867870568 7.5503722014 8.2172955265 8.7743922705 9.3314890144 9.8885857584 
9.9623492833 9.7533375903 9.5443258972 9.3353142042 9.1263025112 8.9172908182 8.7082791252 8.4821214561 7.710493249 
7.0284791774 6.3464651059 5.6505486801 4.8948068422 4.1390650042 3.3833231663 2.6275813284 1.8718394904 1.1799797292 
1.0953739217 0.96710141367 0.82959921752 0.69209702136 0.5545948252 0.41709262904 0.27959043288 0.14208823673 0.0045860405689 
0.0092636417 0.062563416731 0.11572458905 0.17529803181 0.25643549328 0.39976887435 0.54310225542 0.72965774026 1.1050910161 
1.4805242919 1.8559575678 2.2331887948 2.8469384283 3.7941298785 4.7366957989 5.5390773297 6.3414588605 7.1422747012 
7.8247763346 8.4163555141 8.973452258 9.530549002 10.087645746 10.278065633 10.06905394 9.8600422465 9.6510305535 
9.4420188605 9.2330071675 9.0239954745 8.4519277401 7.6519728943 6.9595497577 6.2775356862 5.5955216146 4.9135075431 
4.2314934716 3.5494794 2.8434923838 2.0877505459 1.332008708 1.1047223666 0.9672201704 0.82971797424 0.69221577808 
0.55471358193 0.41721138577 0.27970918961 0.14220699345 0.0047047972957 0.0094979658807 0.063314643092 0.11857054224 0.18285922965 
0.25877550605 0.40210888711 0.54624321884 0.72676305955 1.1021963354 1.4776296112 1.853062887 2.2683508331 2.7982237736 
3.7454152237 4.6926066738 5.6397981239 6.586989574 7.3945895021 8.0583187577 8.6154155016 9.1725122456 9.7296089895 
10.286705733 10.593781982 10.384770289 10.175758596 9.9667469028 9.7577352098 9.5487235167 9.22168887 8.4217340242 
7.6217791783 6.890620338 6.2086062665 5.5265921949 4.8445781234 4.1625640518 3.4805499803 2.7985359087 2.1165218372 
1.4345077657 1.1048411233 0.96733892713 0.82983673097 0.69233453481 0.55483233865 0.4173301425 0.27982794634 0.14232575018 
0.0048235540226 0.0097322900615 0.063548967272 0.12307409967 0.1904204275 0.26111551881 0.40444889988 0.56646108956 0.7389148267 
1.0993016547 1.4747349305 1.8501682063 2.3035128714 2.7697330819 3.6967005689 4.643892019 5.5910834691 6.5382749192 
7.4854663693 8.2573787453 8.8144754892 9.3715722332 9.9286689771 10.485765721 10.909498331 10.700486638 10.491474945 
10.282463252 10.073451559 9.864439866 9.1914951541 8.3915403082 7.5915854624 6.8216909183 6.1396768467 5.4576627752 
4.7756487037 4.0936346321 3.4116205606 2.729606489 2.0475924175 1.3655783459 1.10495988 0.96745768385 0.8299554877 
0.69245329154 0.55495109538 0.41744889922 0.27994670307 0.14244450691 0.0049423107495 0.0099666142422 0.06480662076 0.12418732798 
0.19659183927 0.26345553157 0.41422522314 0.58667896028 0.75913269742 1.0964069739 1.4718402498 1.8724546992 2.3386749097 
2.8048951202 3.6479859141 4.5951773642 5.5423688143 6.4895602644 7.4363354999 8.3019560111 9.0135354768 9.5706322207 
10.127728965 10.684825709 11.22521468 11.016202987 10.807191294 10.598179601 10.389167908 9.961256284 9.1613014381 
8.3613465923 7.5613917465 6.7614369006 6.070747427 5.3887333555 4.7067192839 4.0247052124 3.3426911408 2.6606770693 
1.9786629978 1.3363946418 1.1341618547 0.96757644058 0.83007424442 0.69257204827 0.55506985211 0.41756765595 0.28006545979 
0.14256326363 0.0050610674764 0.010067907432 0.066186418392 0.12530055629 0.19770506758 0.2698315106 0.43444309385 0.60689683099 
0.77935056814 1.0935122932 1.4689455691 1.9076167375 2.373836948 2.8400571585 3.5992712593 4.5464627094 5.4936541595 
6.4408456096 7.3693503376 8.2349708488 9.10059136 9.7696922083 10.326788952 10.883885696 11.44098244 11.331919337 
11.122907644 10.913895951 10.704884258 9.931062568 9.1311077222 8.3311528763 7.5311980305 6.7312431847 6.0018180073 
5.3198039358 4.6377898642 3.9557757927 3.2737617211 2.5917476496 1.909733578 1.3663477081 1.164114921 0.96769519731 
0.83019300115 0.69269080499 0.55518860883 0.41768641268 0.28018421652 0.14268202036 0.0051798242033 0.01009315263 0.067069663228 
0.1264137846 0.19805172106 0.2728516935 0.45466096457 0.62711470171 0.79956843885 1.0906176125 1.4765585654 1.9427787758 
2.4089989863 2.8752191968 3.5505566045 4.4977480546 5.4449395047 6.3921309548 7.3023651753 8.1679856865 9.0336061977 
9.8992267089 10.52584894 11.082945684 11.640042428 11.647635686 11.438623993 11.2296123 10.700823698 9.9008688521 
9.1009140062 8.3009591604 7.5010043146 6.7010494687 5.9328885876 5.250874516 4.5688604445 3.886846373 3.2048323014 
2.5228182299 1.8408041583 1.3963007744 1.1940679873 0.99183520025 0.83031175788 0.69280956172 0.55530736556 0.4178051694 
0.28030297325 0.14280077709 0.0052985809301 0.010118397828 0.067094908426 0.12525972371 0.19449038332 0.28312893557 0.46543444167 
0.64733257243 0.81978630957 1.0877229318 1.5117206037 1.9779408141 2.4441610246 2.9103812351 3.5018419497 4.4490333998 
5.3962248499 6.3434163 7.235380013 8.1010005242 8.9666210354 9.8322415466 10.697862058 11.282005671 11.839102415 
11.963352035 11.754340342 11.470584828 10.670629982 9.8706751361 9.0707202903 8.2707654445 7.4708105986 6.6708557528 
5.8709009069 5.1819450963 4.4999310248 3.8179169532 3.1359028817 2.4538888101 1.7718747386 1.4262538407 1.2240210537 
1.0217882666 0.8304305146 0.69292831845 0.55542612229 0.41792392613 0.28042172997 0.14291953381 0.005417337657 0.010143643026 
0.067105571833 0.12366719925 0.19092904557 0.29340617763 0.47571168373 0.65801718983 0.84000418029 1.0848282511 1.546882642 
2.0131028524 2.4793230629 2.9455432734 3.4531272949 4.400318745 5.3475101951 6.2947016452 7.1683948507 8.0340153619 
8.8996358731 9.7652563843 10.630876895 11.481065659 12.038162403 12.279068384 12.070056691 11.440391112 10.640436266 
9.8404814202 9.0405265744 8.2405717285 7.4406168827 6.6406620368 5.840707191 5.1130156766 4.4310016051 3.7489875335 
3.066973462 2.3849593904 1.7029453189 1.4562069071 1.25397412 1.0517413329 0.84950854583 0.69304707517 0.55554487902 
0.41804268286 0.2805404867 0.14303829054 0.0055360943839 0.010168888224 0.066873892435 0.12343551986 0.18736770783 0.30368341969 
0.48598892579 0.66829443189 0.85059993799 1.1158244698 1.5820446803 2.0482648907 2.5144851012 2.9807053117 3.4469255222 
4.3516040902 5.2987955403 6.2357891773 7.1014096885 7.9670301997 8.8326507108 9.698271222 10.563891733 11.429512244 
12.23722239 12.594784734 12.210152242 11.410197396 10.61024255 9.8102877042 9.0103328584 8.2103780126 7.4104231667 
6.6104683209 5.810513475 5.0440862569 4.3620721853 3.6800581138 2.9980440423 2.3160299707 1.6883927605 1.4861599734 
1.2839271863 1.0816943992 0.87946161216 0.6931658319 0.55566363574 0.41816143958 0.28065924343 0.14315704727 0.0056548511108 
0.01008312616 0.066642213036 0.12320384046 0.18380637009 0.31396066176 0.49626616786 0.67857167396 0.83216983191 1.1264943775 
1.6172067186 2.083426929 2.5496471395 3.01586735 3.4820875605 4.3028894354 5.2500808855 6.168804015 7.0344245262 
7.9000450374 8.7656655486 9.6312860597 10.496906571 11.362527082 12.228147593 12.910501083 12.179958526 11.38000368 
10.580048834 9.7800939883 8.9801391425 8.1801842966 7.3802294508 6.5802746049 5.7803197591 4.9803649132 4.2931427656 
3.6111286941 2.9291146225 2.247100551 1.7183458268 1.5161130397 1.3138802527 1.1116474656 0.90941467849 0.70718189141 
0.55578239247 0.41828019631 0.28077800015 0.143275804 0.0057736078377 0.0098571960135 0.066414409099 0.12297216106 0.18024503234 
0.32423790382 0.49579077463 0.64909515005 0.80239952548 1.1358013501 1.6304750568 2.1185889673 2.5848091778 3.0510293883 
3.5172495988 4.2541747806 5.2013662307 6.1018188527 6.9674393639 7.8330598751 8.6986803863 9.5643008975 10.429921409 
11.29554192 12.110813349 12.663603399 12.146106417 11.349809964 10.549855118 9.7499002724 8.9499454265 8.1499905807 
7.3500357348 6.550080889 5.7501260431 4.9501711973 4.2242133459 3.5421992744 2.8601852028 2.1781711313 1.7482988931 
1.5460661061 1.343833319 1.1416005319 0.93936774482 0.73713495774 0.5559011492 0.41839895304 0.28089675688 0.14339456072 
0.0058923645645 0.0096312658667 0.066188478952 0.12274569204 0.17930290512 0.31271609277 0.4660204682 0.61932484362 0.77262921905 
1.1451083226 1.6397820293 2.134455736 2.6199712161 3.0861914266 3.5524116371 4.2054601259 5.152651576 6.0348336904 
6.9004542016 7.7660747128 8.631695224 9.4973157352 10.362936246 11.030750372 11.683516434 12.196128704 11.678631722 
11.161134739 10.519661402 9.7197065564 8.9197517106 8.1197968647 7.3198420189 6.519887173 5.7199323272 4.9199774813 
4.1552839262 3.4732698546 2.7912557831 2.1092417116 1.7782519595 1.5760191724 1.3737863853 1.1715535982 0.96932081115 
0.76708802407 0.56485523699 0.41851770976 0.28101551361 0.14351331745 0.0060111212914 0.00940533572 0.065962548805 0.12251976189 
0.17446856974 0.28294578634 0.43625016177 0.58955453719 0.74285891262 1.1544152951 1.6490890018 2.1437627085 2.6384364152 
3.1213534649 3.5875736754 4.1567454711 5.102228017 5.9678485281 6.8334690393 7.6990895505 8.5647100617 9.2979213336 
9.9506873956 10.603453458 11.25621952 11.728654009 11.211157026 10.693660044 10.176163061 9.6586660788 8.8895579946 
8.0896031488 7.2896483029 6.4896934571 5.6897386112 4.8897837654 4.0898289195 3.4043404349 2.7223263634 2.0403122918 
1.8082050258 1.6059722387 1.4037394516 1.2015066646 0.99927387748 0.7970410904 0.59480830332 0.41863646649 0.28113427033 
0.14363207418 0.0061298780183 0.0091794055732 0.065736618658 0.11871302309 0.1679014714 0.27047945406 0.40647985534 0.55978423076 
0.71308860619 1.1637222677 1.6583959744 2.1530696811 2.6477433878 3.1424170945 3.6227357137 4.1080308163 5.0352428547 
5.9008633659 6.766483877 7.565092295 8.217858357 8.8706244191 9.5233904811 10.176156543 10.828922605 11.261179314 
10.743682331 10.226185349 9.708688366 9.1911913835 8.673694401 8.0594094328 7.259454587 6.4594997411 5.6595448953 
4.8595900494 4.0596352036 3.3354110152 2.6533969437 2.0403908792 1.8381580921 1.6359253051 1.433692518 1.2314597309 
1.0292269438 0.82699415673 0.62476136965 0.42252858257 0.28125302706 0.1437508309 0.0062486347452 0.0089534754264 0.062957476435 
0.11214592475 0.16133437306 0.26506674132 0.379226056 0.53001392434 0.68331829976 1.1730292402 1.6677029469 2.1623766536 
2.6570503603 3.151724067 3.6463977737 4.1241179625 4.9682576924 5.8322632565 6.4850293185 7.1377953805 7.7905614425 
8.4433275045 9.0960935665 9.7488596285 10.401625691 10.793704618 10.276207636 9.7587106533 9.2412136707 8.7237166882 
8.2062197057 7.6887227232 7.1712257407 6.4293060252 5.6293511793 4.8293963335 4.0294414876 3.2664815955 2.5844675239 
2.0703439455 1.8681111585 1.6658783714 1.4636455843 1.2614127972 1.0591800101 0.85694722306 0.65471443598 0.4524816489 
0.28137178379 0.14386958763 0.0063673914721 0.0086855757732 0.056390378093 0.1055788264 0.15476727472 0.25965402859 0.37381334327 
0.50024361791 0.68766250604 1.1823362127 1.6770099194 2.1716836261 2.6663573328 3.1610310395 3.6557047462 4.1503784529 
4.7522002799 5.4049663419 6.057732404 6.710498466 7.363264528 8.01603059 8.668796652 9.321562714 9.974328776 
10.326229923 9.8087329405 9.291235958 8.7737389755 8.256241993 7.7387450105 7.221248028 6.7037510455 6.186254063 
5.5991574634 4.7992026175 3.9992477717 3.1992929258 2.5155381042 2.1002970119 1.8980642248 1.6958314377 1.4935986506 
1.2913658636 1.0891330765 0.88690028939 0.68466750231 0.48243471523 0.28149054051 0.14398834436 0.0064861481989 0.0082868228623 
0.04982327975 0.099011728062 0.14820017637 0.25424131586 0.36840063054 0.48255994522 0.69696947858 1.1916431853 1.686316892 
2.1812699839 2.6768370834 3.1724041829 3.6679712824 4.0840410255 4.3249033654 4.9776694274 5.6304354894 6.2832015514 
6.9359676134 7.5887336755 8.2414997375 8.8942657995 9.5470318615 9.8587552278 9.3412582452 8.8237612627 8.3062642802 
7.7887672977 7.2712703152 6.7537733327 6.2362763502 5.7187793677 5.2012823852 4.6837854027 3.9690540557 3.1690992099 
2.4466086845 2.1302500782 1.9280172911 1.725784504 1.523551717 1.3213189299 1.1190861428 0.91685335572 0.71462056864 
0.51238778156 0.31015499448 0.14410710108 0.0066049049258 0.0078880699513 0.048316083837 0.092444629719 0.14163307803 0.24882860313 
0.36298791781 0.47714723249 0.70798315892 1.2035502584 1.6991173579 2.1946844574 2.6902515569 3.1858186563 3.6813857558 
3.9207349215 4.0979770841 4.5503725129 5.2031385749 5.8559046369 6.5086706989 7.1614367609 7.8142028229 8.4669688849 
9.119734947 9.3912805325 8.87378355 8.3562865675 7.838789585 7.3212926025 6.80379562 6.2862986374 5.7688016549 
5.2513046724 4.7338076899 4.2163107074 3.6988137249 3.1389054939 2.3776792648 2.1602031445 1.9579703574 1.7557375704 
1.5535047833 1.3512719962 1.1490392091 0.94680642205 0.74457363497 0.54234084789 0.34010806081 0.14422585781 0.0067236616527 
0.0074893170403 0.047917330926 0.088345344811 0.13506597969 0.24341589039 0.35443586082 0.45745385025 0.72139763238 1.2169647319 
1.7125318313 2.2080989308 2.7036660303 3.1992331298 3.5801866549 3.7574288175 3.9346709801 4.1230755983 4.7758416604 
5.4286077224 6.0813737844 6.7341398464 7.3869059084 8.0396719704 8.6924380324 8.9238058372 8.4063088547 7.8888118722 